ITEM: TIMESTEP
109420000
ITEM: NUMBER OF ATOMS
39000
ITEM: BOX BOUNDS pp pp pp
2.2839214118936980e+01 1.5716078588078960e+02
-3.9516259202228355e+01 2.1951625914101001e+02
3.1588020406226173e+02 3.6611979593773827e+02
ITEM: ATOMS id type xu yu zu c_orient[1] c_orient[2] c_orient[3] c_orient[4] c_shape[1] c_shape[2] c_shape[3] 
20333 5 166.619 232.988 316.876 0 0 0 0 0 0 0 
20362 1 159.56 225.397 320.527 0 0 0 0 0 0 0 
9658 1 29.6384 226.414 317.046 0 0 0 0 0 0 0 
9660 1 30.6154 226.79 319.321 0 0 0 0 0 0 0 
9928 1 28.0556 230.508 271.04 0 0 0 0 0 0 0 
9661 1 31.3192 226.279 320.584 0 0 0 0 0 0 0 
20334 1 166.727 234.501 316.721 0 0 0 0 0 0 0 
32023 2 167.698 -27.0356 325.064 0 0 0 0 0 0 0 
9926 1 29.9364 230.759 269.358 0 0 0 0 0 0 0 
9652 1 24.1146 229.943 318.811 0 0 0 0 0 0 0 
20364 1 158.636 225.603 322.94 0 0 0 0 0 0 0 
9932 1 26.5224 233.125 274.981 0 0 0 0 0 0 0 
9663 1 32.9643 224.512 321.599 0 0 0 0 0 0 0 
20358 1 160.025 221.154 319.818 0 0 0 0 0 0 0 
9656 1 27.5768 227.503 315.917 0 0 0 0 0 0 0 
9929 1 27.6849 230.23 272.55 0 0 0 0 0 0 0 
20361 1 160.791 225.069 319.661 0 0 0 0 0 0 0 
9927 1 29.4499 231.084 270.784 0 0 0 0 0 0 0 
9934 1 25.8645 235.572 274.403 0 0 0 0 0 0 0 
9655 1 26.5606 228.662 316.083 0 0 0 0 0 0 0 
9654 1 25.7318 228.572 317.294 0 0 0 0 0 0 0 
9664 5 33.6671 223.166 321.457 0 0 0 0 0 0 0 
20355 6 164.811 227.113 325.405 0.887373 -0.11527 -0.107293 0.433326 2.345 2.345 8.755 
20357 1 159.507 221.02 321.266 0 0 0 0 0 0 0 
19272 1 160.95 235.159 268.417 0 0 0 0 0 0 0 
20359 1 159.9 222.547 319.089 0 0 0 0 0 0 0 
9659 1 30.0747 225.777 318.334 0 0 0 0 0 0 0 
20363 1 159.751 225.11 321.997 0 0 0 0 0 0 0 
20365 1 158.624 227.076 323.213 0 0 0 0 0 0 0 
9924 1 30.1293 231.08 266.787 0 0 0 0 0 0 0 
19271 1 162.421 234.905 268.23 0 0 0 0 0 0 0 
9903 1 34.7438 219.674 272.988 0 0 0 0 0 0 0 
20356 5 160.639 221.359 322.251 0 0 0 0 0 0 0 
9651 1 23.8444 231.017 319.757 0 0 0 0 0 0 0 
20360 1 161.064 223.547 319.469 0 0 0 0 0 0 0 
9900 1 34.8707 222.477 274.44 0 0 0 0 0 0 0 
9925 1 29.3049 231.389 268.107 0 0 0 0 0 0 0 
9662 1 32.5714 225.387 320.398 0 0 0 0 0 0 0 
9933 1 25.4451 234.254 275.154 0 0 0 0 0 0 0 
20332 6 170.44 226.524 318.893 0.691924 -0.414041 -0.527427 -0.267641 2.345 2.345 8.755 
9653 1 25.4311 229.945 317.942 0 0 0 0 0 0 0 
9901 1 35.9057 221.351 274.552 0 0 0 0 0 0 0 
9657 1 28.4502 227.414 317.166 0 0 0 0 0 0 0 
9930 1 27.727 231.219 273.678 0 0 0 0 0 0 0 
9931 1 26.6469 232.325 273.659 0 0 0 0 0 0 0 
32024 4 165.765 -23.9001 323.922 0 0 0 0 0 0 0 
13476 1 161.745 -36.631 325.901 0 0 0 0 0 0 0 
32021 1 169.85 -30.9167 323.457 0 0 0 0 0 0 0 
13477 1 161.406 -35.2328 325.403 0 0 0 0 0 0 0 
20335 1 168.003 234.931 317.486 0 0 0 0 0 0 0 
9902 1 36.0252 220.435 273.282 0 0 0 0 0 0 0 
20366 1 157.173 227.598 323.317 0 0 0 0 0 0 0 
19270 1 162.92 235.571 266.933 0 0 0 0 0 0 0 
9689 5 24.2071 221.395 325.577 0 0 0 0 0 0 0 
13485 1 163.523 -26.5682 328.638 0 0 0 0 0 0 0 
16058 1 170.324 -29.7027 331.264 0 0 0 0 0 0 0 
16061 1 168.27 -29.4801 334.589 0 0 0 0 0 0 0 
29512 1 161.002 -32.3908 382.317 0 0 0 0 0 0 0 
32022 3 169.61 -30.1629 326.159 0 0 0 0 0 0 0 
21786 1 158.665 233.768 279.806 0 0 0 0 0 0 0 
29514 1 161.219 -30.5176 384.2 0 0 0 0 0 0 0 
13481 1 160.803 -30.441 327.086 0 0 0 0 0 0 0 
21788 1 157.441 231.595 279.461 0 0 0 0 0 0 0 
21787 1 158.802 232.319 279.47 0 0 0 0 0 0 0 
34394 1 169.58 233.99 233.687 0 0 0 0 0 0 0 
13474 1 163.635 -38.2044 326.447 0 0 0 0 0 0 0 
16059 1 169.056 -29.4107 332.128 0 0 0 0 0 0 0 
16060 1 169.371 -29.6515 333.595 0 0 0 0 0 0 0 
29518 5 165.6 -31.513 384.512 0 0 0 0 0 0 0 
29511 1 160.092 -33.4025 381.698 0 0 0 0 0 0 0 
29509 1 157.987 -33.5553 380.38 0 0 0 0 0 0 0 
29513 1 160.37 -31.5987 383.53 0 0 0 0 0 0 0 
9896 5 32.0841 220.626 278.243 0 0 0 0 0 0 0 
13484 1 162.523 -27.5467 329.118 0 0 0 0 0 0 0 
29516 1 163.493 -30.3549 385.442 0 0 0 0 0 0 0 
13473 5 162.853 -39.1509 327.412 0 0 0 0 0 0 0 
13472 6 158.664 -39.505 333.952 0.494506 0.79098 0.202052 0.298311 2.345 2.345 8.755 
20354 5 168.983 232.863 328.563 0 0 0 0 0 0 0 
29510 1 158.682 -32.8756 381.543 0 0 0 0 0 0 0 
36157 1 162.452 -23.6125 285.271 0 0 0 0 0 0 0 
13482 1 161.684 -29.8833 328.191 0 0 0 0 0 0 0 
13479 1 160.754 -32.844 326.118 0 0 0 0 0 0 0 
9899 1 34.2789 222.617 275.763 0 0 0 0 0 0 0 
13480 1 160.518 -31.9034 327.271 0 0 0 0 0 0 0 
13478 1 161.137 -34.2753 326.591 0 0 0 0 0 0 0 
13483 1 162.106 -28.3992 327.938 0 0 0 0 0 0 0 
23923 1 157.925 -26.2185 384.185 0 0 0 0 0 0 0 
29515 1 162.313 -31.2337 384.935 0 0 0 0 0 0 0 
13475 1 163.086 -36.7529 326.567 0 0 0 0 0 0 0 
29517 1 164.638 -30.2505 384.401 0 0 0 0 0 0 0 
23922 1 157.307 -27.6429 383.938 0 0 0 0 0 0 0 
13486 1 163.952 -25.5839 329.693 0 0 0 0 0 0 0 
21789 1 157.581 230.572 278.331 0 0 0 0 0 0 0 
9897 1 32.8491 221.76 277.633 0 0 0 0 0 0 0 
21785 1 158.017 234.699 278.728 0 0 0 0 0 0 0 
20350 1 167.944 235.333 329.377 0 0 0 0 0 0 0 
9898 1 33.5698 221.357 276.312 0 0 0 0 0 0 0 
23921 1 157.444 -28.6728 384.992 0 0 0 0 0 0 0 
9711 6 35.3609 219.716 334.444 -0.736321 -0.00702425 -0.589713 -0.331692 2.345 2.345 8.755 
13487 1 162.928 -24.4781 329.839 0 0 0 0 0 0 0 
20353 1 169.89 233.254 329.733 0 0 0 0 0 0 0 
34393 1 168.916 233.427 234.945 0 0 0 0 0 0 0 
20352 1 170.43 234.637 329.564 0 0 0 0 0 0 0 
13488 1 162.765 -23.6532 328.485 0 0 0 0 0 0 0 
16062 1 168.449 -30.3015 335.939 0 0 0 0 0 0 0 
36152 1 164.707 -26.7745 288.975 0 0 0 0 0 0 0 
36150 1 164.88 -28.9906 287.823 0 0 0 0 0 0 0 
21884 1 162.95 233.324 292.086 0 0 0 0 0 0 0 
36154 1 163.579 -24.9511 287.753 0 0 0 0 0 0 0 
3660 1 25.5673 233.693 338.296 0 0 0 0 0 0 0 
3653 1 25.6665 229.882 342.994 0 0 0 0 0 0 0 
21964 1 162.866 219.652 341.231 0 0 0 0 0 0 0 
3656 1 26.0593 229.816 339.882 0 0 0 0 0 0 0 
3655 1 25.7897 228.58 340.71 0 0 0 0 0 0 0 
21886 1 163.859 231.02 292.672 0 0 0 0 0 0 0 
3649 6 31.5708 222.997 343.33 -0.351639 0.564808 0.583118 -0.466171 2.345 2.345 8.755 
34385 1 167.944 231.106 243.573 0 0 0 0 0 0 0 
3658 1 26.3712 231.277 338.017 0 0 0 0 0 0 0 
21889 1 164.515 227.356 293.979 0 0 0 0 0 0 0 
36153 1 164.659 -25.3247 288.799 0 0 0 0 0 0 0 
3662 1 24.1703 234.121 340.324 0 0 0 0 0 0 0 
34389 1 169.481 232.421 239.305 0 0 0 0 0 0 0 
16063 1 169.367 -29.6934 337.049 0 0 0 0 0 0 0 
36149 1 165.613 -29.3202 289.085 0 0 0 0 0 0 0 
9710 5 29.1345 223.72 336.821 0 0 0 0 0 0 0 
9706 1 24.6862 224.748 336.1 0 0 0 0 0 0 0 
21883 1 161.782 234.36 291.982 0 0 0 0 0 0 0 
9708 1 26.8142 224.444 337.465 0 0 0 0 0 0 0 
3654 1 26.3526 228.741 342.112 0 0 0 0 0 0 0 
3657 1 26.087 229.828 338.393 0 0 0 0 0 0 0 
21887 1 163.632 229.734 293.465 0 0 0 0 0 0 0 
34387 1 169.528 232.271 241.874 0 0 0 0 0 0 0 
36148 1 166.166 -30.7468 289.223 0 0 0 0 0 0 0 
21882 1 162.196 235.72 291.331 0 0 0 0 0 0 0 
34386 1 168.171 231.676 242.156 0 0 0 0 0 0 0 
21966 1 161.282 221.053 342.915 0 0 0 0 0 0 0 
3652 1 24.2203 229.455 343.469 0 0 0 0 0 0 0 
8145 1 31.0965 -23.7437 293.789 0 0 0 0 0 0 0 
3651 1 24.1743 228.142 344.292 0 0 0 0 0 0 0 
3661 1 24.3942 234.534 338.847 0 0 0 0 0 0 0 
36151 1 164.982 -27.5339 287.685 0 0 0 0 0 0 0 
3659 1 25.2156 232.148 338.371 0 0 0 0 0 0 0 
21885 1 162.894 232.122 293.011 0 0 0 0 0 0 0 
21968 1 158.704 221.535 342.509 0 0 0 0 0 0 0 
36147 5 167.119 -31.1342 288.073 0 0 0 0 0 0 0 
21965 1 162.486 220.051 342.683 0 0 0 0 0 0 0 
9707 1 25.4846 225.209 337.255 0 0 0 0 0 0 0 
21967 1 159.939 220.712 342.204 0 0 0 0 0 0 0 
21888 1 164.685 228.651 293.237 0 0 0 0 0 0 0 
34384 1 168.687 229.822 243.788 0 0 0 0 0 0 0 
8144 1 31.1027 -23.6379 295.279 0 0 0 0 0 0 0 
3650 5 24.8609 226.904 343.735 0 0 0 0 0 0 0 
34391 1 168.57 233.99 237.488 0 0 0 0 0 0 0 
34390 1 169.757 233.196 238.007 0 0 0 0 0 0 0 
34388 1 169.796 233.202 240.678 0 0 0 0 0 0 0 
34392 1 168.823 234.453 236.029 0 0 0 0 0 0 0 
21969 1 158.189 221.23 343.911 0 0 0 0 0 0 0 
36155 1 163.737 -23.4524 287.506 0 0 0 0 0 0 0 
9709 1 27.9261 224.575 336.362 0 0 0 0 0 0 0 
3664 1 22.8364 234.856 342.351 0 0 0 0 0 0 0 
31093 1 158.216 -25.0855 396.056 0 0 0 0 0 0 0 
34383 5 169.078 229.51 245.253 0 0 0 0 0 0 0 
21890 1 164.902 227.535 295.45 0 0 0 0 0 0 0 
9705 1 23.304 225.441 336.058 0 0 0 0 0 0 0 
3663 1 22.9615 234.937 340.86 0 0 0 0 0 0 0 
21970 1 157.445 219.877 343.809 0 0 0 0 0 0 0 
31092 1 158.538 -23.6232 396.196 0 0 0 0 0 0 0 
21892 6 167.044 221.892 302.208 0.41504 0.130321 0.0880128 0.89611 2.345 2.345 8.755 
11943 1 28.129 -26.1853 356.118 0 0 0 0 0 0 0 
31098 1 157.788 -30.7372 398.501 0 0 0 0 0 0 0 
7472 5 23.0614 221.634 352.995 0 0 0 0 0 0 0 
11936 6 35.4693 -32.9434 354.912 0.78986 -0.414338 -0.347233 -0.28961 2.345 2.345 8.755 
31103 6 164.925 -39.4252 397.566 0.23968 0.703592 -0.216866 0.632836 2.345 2.345 8.755 
15080 1 25.8252 233.944 300.899 0 0 0 0 0 0 0 
15082 1 24.733 232.686 302.656 0 0 0 0 0 0 0 
31095 1 158.344 -27.4692 397.133 0 0 0 0 0 0 0 
8140 1 28.7875 -27.0687 297.052 0 0 0 0 0 0 0 
11937 5 32.393 -27.0651 350.859 0 0 0 0 0 0 0 
11938 1 31.8001 -25.7294 350.952 0 0 0 0 0 0 0 
15081 1 25.185 232.647 301.228 0 0 0 0 0 0 0 
31096 1 158.689 -28.3068 398.345 0 0 0 0 0 0 0 
11941 1 29.3313 -26.7252 353.874 0 0 0 0 0 0 0 
8137 6 24.3216 -31.6334 304.798 -0.964249 0.0242966 -0.181202 0.191834 2.345 2.345 8.755 
11939 1 30.5168 -25.9152 351.8 0 0 0 0 0 0 0 
31101 1 158.334 -33.6676 400.029 0 0 0 0 0 0 0 
8138 5 28.3094 -28.647 298.829 0 0 0 0 0 0 0 
21891 5 165.909 226.634 296.152 0 0 0 0 0 0 0 
8139 1 28.3573 -28.4945 297.299 0 0 0 0 0 0 0 
11940 1 30.673 -26.4862 353.182 0 0 0 0 0 0 0 
11942 1 29.3803 -26.4412 355.371 0 0 0 0 0 0 0 
15083 1 23.7024 231.572 303.044 0 0 0 0 0 0 0 
31102 5 158.789 -35.0129 399.391 0 0 0 0 0 0 0 
8141 1 30.1647 -26.6343 297.456 0 0 0 0 0 0 0 
31097 1 157.555 -29.2925 398.988 0 0 0 0 0 0 0 
31094 1 158.216 -25.8989 397.357 0 0 0 0 0 0 0 
15079 1 26.6729 233.828 299.644 0 0 0 0 0 0 0 
15078 1 27.0532 235.289 299.227 0 0 0 0 0 0 0 
8142 1 30.3178 -25.162 297.216 0 0 0 0 0 0 0 
11944 1 27.1713 -27.3951 355.946 0 0 0 0 0 0 0 
8143 1 30.2835 -24.8314 295.744 0 0 0 0 0 0 0 
31091 1 160.043 -23.3071 396.388 0 0 0 0 0 0 0 
9919 5 31.9638 230.915 261.442 0 0 0 0 0 0 0 
11946 1 25.2163 -28.5421 357.338 0 0 0 0 0 0 0 
24307 1 166.613 -23.7618 309.156 0 0 0 0 0 0 0 
21908 1 165.324 228.614 306.931 0 0 0 0 0 0 0 
21909 1 166.377 227.613 307.413 0 0 0 0 0 0 0 
21902 1 163.205 223.426 306.724 0 0 0 0 0 0 0 
23976 1 161.257 -36.1569 362.446 0 0 0 0 0 0 0 
7526 1 23.94 230.541 363.03 0 0 0 0 0 0 0 
21912 1 166.862 225.572 310.844 0 0 0 0 0 0 0 
23975 1 160.437 -34.8412 362.231 0 0 0 0 0 0 0 
21913 1 165.736 224.481 310.933 0 0 0 0 0 0 0 
7524 1 24.1759 232.407 364.751 0 0 0 0 0 0 0 
7527 1 24.32 230.114 361.644 0 0 0 0 0 0 0 
21899 1 165.953 220.967 308.035 0 0 0 0 0 0 0 
19265 1 162.287 235.025 260.541 0 0 0 0 0 0 0 
23977 5 160.888 -37.2911 361.55 0 0 0 0 0 0 0 
19261 1 158.693 234.747 260.362 0 0 0 0 0 0 0 
24308 1 166.217 -24.805 308.117 0 0 0 0 0 0 0 
21910 1 166.163 227.131 308.914 0 0 0 0 0 0 0 
11947 1 26.1434 -29.2177 358.423 0 0 0 0 0 0 0 
7528 1 23.826 228.665 361.416 0 0 0 0 0 0 0 
21900 1 164.485 221.311 307.696 0 0 0 0 0 0 0 
9920 1 31.0509 232.086 261.759 0 0 0 0 0 0 0 
7525 1 24.3157 231.997 363.301 0 0 0 0 0 0 0 
21906 1 163.735 226.864 305.749 0 0 0 0 0 0 0 
24309 5 166.606 -26.2312 308.45 0 0 0 0 0 0 0 
21907 1 163.844 228.022 306.777 0 0 0 0 0 0 0 
23974 1 158.957 -34.7702 362.488 0 0 0 0 0 0 0 
21914 5 165.853 223.789 312.327 0 0 0 0 0 0 0 
23972 1 158.317 -33.1743 364.3 0 0 0 0 0 0 0 
21911 1 167.105 226.036 309.386 0 0 0 0 0 0 0 
21898 1 166.186 220.206 309.39 0 0 0 0 0 0 0 
9918 6 35.1481 224.397 264.24 0.791111 -0.142677 -0.379575 -0.45794 2.345 2.345 8.755 
21904 1 162.235 225.554 307.417 0 0 0 0 0 0 0 
21897 1 167.716 219.736 309.285 0 0 0 0 0 0 0 
19267 1 162.117 235.389 263.043 0 0 0 0 0 0 0 
23973 1 158.757 -34.6137 363.936 0 0 0 0 0 0 0 
21905 1 162.484 226.131 305.986 0 0 0 0 0 0 0 
21903 1 163.319 224.494 307.791 0 0 0 0 0 0 0 
9921 1 30.0827 231.742 262.884 0 0 0 0 0 0 0 
32547 5 168.65 -25.2178 362.958 0 0 0 0 0 0 0 
32548 1 167.73 -24.1119 363.265 0 0 0 0 0 0 0 
19269 1 162.155 235.295 265.668 0 0 0 0 0 0 0 
9922 1 30.5963 231.576 264.356 0 0 0 0 0 0 0 
11945 1 25.846 -27.3018 356.703 0 0 0 0 0 0 0 
21901 1 164.405 222.461 306.706 0 0 0 0 0 0 0 
19260 1 157.274 234.588 261.038 0 0 0 0 0 0 0 
19266 1 162.982 235.521 261.864 0 0 0 0 0 0 0 
23971 1 157.24 -33.0094 365.423 0 0 0 0 0 0 0 
9923 1 29.4611 231.54 265.424 0 0 0 0 0 0 0 
20336 1 168.311 236.462 317.571 0 0 0 0 0 0 0 
32555 1 167.155 -16.9095 367.394 0 0 0 0 0 0 0 
32045 1 165.962 -12.8607 321.049 0 0 0 0 0 0 0 
24294 1 161.436 -18.5881 316.777 0 0 0 0 0 0 0 
24290 1 163.302 -19.6717 320.908 0 0 0 0 0 0 0 
32042 1 168.524 -14.2159 323.493 0 0 0 0 0 0 0 
24292 1 163.003 -18.3973 318.621 0 0 0 0 0 0 0 
24288 5 161.519 -17.862 321.206 0 0 0 0 0 0 0 
20337 1 167.098 237.274 317.91 0 0 0 0 0 0 0 
19273 1 160.513 236.478 269.006 0 0 0 0 0 0 0 
24287 6 159.988 -11.518 316.98 0.0428185 0.550441 -0.825799 0.115055 2.345 2.345 8.755 
32041 1 169.16 -13.9169 324.858 0 0 0 0 0 0 0 
32556 1 168.676 -16.6093 367.483 0 0 0 0 0 0 0 
20342 1 168.058 240.922 322.755 0 0 0 0 0 0 0 
24289 1 162.607 -18.6657 321.873 0 0 0 0 0 0 0 
20341 1 167.7 239.609 321.934 0 0 0 0 0 0 0 
24293 1 162.184 -19.4219 317.81 0 0 0 0 0 0 0 
402 6 28.625 -8.00154 271.843 0.383333 0.139729 0.135468 0.902873 2.345 2.345 8.755 
20343 1 166.984 241.1 323.896 0 0 0 0 0 0 0 
20340 1 168.701 239.163 320.895 0 0 0 0 0 0 0 
32044 1 166.913 -13.9283 321.57 0 0 0 0 0 0 0 
13494 5 161.579 -17.1298 324.575 0 0 0 0 0 0 0 
32043 1 167.265 -13.5429 323.071 0 0 0 0 0 0 0 
32040 1 170.032 -15.0457 325.506 0 0 0 0 0 0 0 
20338 1 167.45 238.494 318.8 0 0 0 0 0 0 0 
32047 1 165.556 -12.5283 318.474 0 0 0 0 0 0 0 
13495 6 157.914 -10.9552 321.592 -0.546507 -0.658278 -0.0978836 0.508349 2.345 2.345 8.755 
19274 1 159.041 236.483 269.327 0 0 0 0 0 0 0 
32049 1 167.088 -12.56 316.373 0 0 0 0 0 0 0 
20339 1 168.32 238.014 319.959 0 0 0 0 0 0 0 
32557 1 169.068 -16.4195 368.967 0 0 0 0 0 0 0 
32048 1 166.841 -13.0493 317.855 0 0 0 0 0 0 0 
32558 1 170.559 -16.3598 369.3 0 0 0 0 0 0 0 
24291 1 163.947 -19.0246 319.66 0 0 0 0 0 0 0 
19276 5 158.556 238.99 269.057 0 0 0 0 0 0 0 
9936 1 23.8604 237.278 274.932 0 0 0 0 0 0 0 
19275 1 158.578 237.826 269.969 0 0 0 0 0 0 0 
20344 1 167.424 240.315 325.06 0 0 0 0 0 0 0 
32046 1 165.181 -13.2517 319.769 0 0 0 0 0 0 0 
9937 1 22.8876 238.352 274.427 0 0 0 0 0 0 0 
9935 1 24.7104 236.508 273.887 0 0 0 0 0 0 0 
24295 1 160.471 -19.5025 316.103 0 0 0 0 0 0 0 
32567 1 170.567 -7.69026 367.903 0 0 0 0 0 0 0 
13493 1 162.04 -17.8257 325.892 0 0 0 0 0 0 0 
13492 1 161.975 -19.4087 325.915 0 0 0 0 0 0 0 
32050 1 167.193 -11.069 316.056 0 0 0 0 0 0 0 
24246 1 169.1 -10.0916 277.345 0 0 0 0 0 0 0 
405 1 30.5278 -15.1303 279.077 0 0 0 0 0 0 0 
19327 1 159.822 240.823 280.492 0 0 0 0 0 0 0 
4247 1 25.4458 -7.17815 436.117 0 0 0 0 0 0 0 
19324 5 160.221 244.726 279.595 0 0 0 0 0 0 0 
410 1 34.1504 -18.0001 281.86 0 0 0 0 0 0 0 
36161 1 158.488 -20.5414 284.845 0 0 0 0 0 0 0 
19330 1 163.094 239.22 281.862 0 0 0 0 0 0 0 
19325 1 160.491 243.281 279.424 0 0 0 0 0 0 0 
20495 1 163.328 246.582 282.751 0 0 0 0 0 0 0 
408 1 32.1727 -16.4053 281.464 0 0 0 0 0 0 0 
20349 1 167.256 236.474 328.664 0 0 0 0 0 0 0 
19326 1 159.507 242.399 280.304 0 0 0 0 0 0 0 
13489 1 161.971 -22.3358 328.493 0 0 0 0 0 0 0 
36158 1 161.456 -22.9176 284.463 0 0 0 0 0 0 0 
19323 6 157.248 251.076 276.234 -0.435588 -0.297965 -0.0346346 -0.848693 2.345 2.345 8.755 
20346 1 167.004 238.982 327.263 0 0 0 0 0 0 0 
20348 1 166.679 237.796 329.337 0 0 0 0 0 0 0 
20496 1 164.831 246.568 282.591 0 0 0 0 0 0 0 
20494 5 162.666 247.798 283.215 0 0 0 0 0 0 0 
404 1 29.843 -14.7551 277.828 0 0 0 0 0 0 0 
19329 1 161.636 239.15 281.351 0 0 0 0 0 0 0 
36159 1 160.233 -22.2901 285.126 0 0 0 0 0 0 0 
407 1 30.621 -16.3659 281.346 0 0 0 0 0 0 0 
21784 1 157.817 236.196 279.16 0 0 0 0 0 0 0 
9616 1 25.8516 242.462 334.852 0 0 0 0 0 0 0 
20498 1 165.457 248.677 283.933 0 0 0 0 0 0 0 
9617 1 24.3215 242.588 334.887 0 0 0 0 0 0 0 
24244 1 168.048 -11.5242 279.344 0 0 0 0 0 0 0 
19331 1 163.821 237.949 282.107 0 0 0 0 0 0 0 
20347 1 166.048 238.742 328.374 0 0 0 0 0 0 0 
19332 1 165.17 238.342 282.57 0 0 0 0 0 0 0 
19328 1 161.168 240.623 281.155 0 0 0 0 0 0 0 
20497 1 165.389 247.101 283.915 0 0 0 0 0 0 0 
24243 1 167.459 -10.3548 280.274 0 0 0 0 0 0 0 
13491 1 162.176 -20.1373 327.204 0 0 0 0 0 0 0 
20345 1 166.423 239.888 326.125 0 0 0 0 0 0 0 
24242 5 165.998 -10.0852 279.903 0 0 0 0 0 0 0 
406 1 30.184 -16.3905 279.846 0 0 0 0 0 0 0 
24245 1 168.237 -11.2668 277.871 0 0 0 0 0 0 0 
409 1 32.7406 -17.8381 281.166 0 0 0 0 0 0 0 
32039 1 170.523 -14.7116 326.95 0 0 0 0 0 0 0 
13490 1 162.137 -21.7004 327.174 0 0 0 0 0 0 0 
19335 1 167.202 238.118 284.575 0 0 0 0 0 0 0 
19334 1 167.491 237.384 283.251 0 0 0 0 0 0 0 
411 1 35.0783 -17.0264 281.13 0 0 0 0 0 0 0 
19333 1 166.187 237.128 282.473 0 0 0 0 0 0 0 
403 5 30.0181 -13.2467 277.411 0 0 0 0 0 0 0 
19336 1 168.534 238.662 285.211 0 0 0 0 0 0 0 
20351 1 169.329 235.761 329.783 0 0 0 0 0 0 0 
20499 1 165.962 249.253 285.301 0 0 0 0 0 0 0 
9618 5 23.6004 243.322 333.692 0 0 0 0 0 0 0 
36160 1 159.182 -21.688 284.164 0 0 0 0 0 0 0 
24247 1 170.482 -9.97521 277.975 0 0 0 0 0 0 0 
20500 1 166.402 250.771 285.154 0 0 0 0 0 0 0 
9615 1 26.5063 241.397 335.752 0 0 0 0 0 0 0 
9614 1 28.0158 241.325 335.528 0 0 0 0 0 0 0 
9939 1 23.2227 240.438 275.783 0 0 0 0 0 0 0 
8156 1 28.0151 -14.0863 289.371 0 0 0 0 0 0 0 
25223 1 161.626 -9.41756 343.497 0 0 0 0 0 0 0 
19338 1 169.608 240.35 286.791 0 0 0 0 0 0 0 
21881 1 160.98 236.658 291.199 0 0 0 0 0 0 0 
21877 1 159.224 241.299 291.657 0 0 0 0 0 0 0 
31086 1 164.475 -18.6868 396.009 0 0 0 0 0 0 0 
9609 1 32.5071 245.137 337.309 0 0 0 0 0 0 0 
31081 5 169.524 -16.9969 394.3 0 0 0 0 0 0 0 
19339 1 170.231 240.411 288.195 0 0 0 0 0 0 0 
8158 1 26.0322 -12.4673 288.662 0 0 0 0 0 0 0 
25220 1 163.662 -12.6363 344.403 0 0 0 0 0 0 0 
21880 1 161.358 238.112 291.114 0 0 0 0 0 0 0 
950 1 32.8438 -8.60078 344.607 0 0 0 0 0 0 0 
21878 1 160.446 240.409 291.696 0 0 0 0 0 0 0 
951 1 34.2494 -9.31963 344.6 0 0 0 0 0 0 0 
8152 1 31.5832 -16.5685 290.655 0 0 0 0 0 0 0 
31083 1 168.051 -17.2988 396.193 0 0 0 0 0 0 0 
8157 1 27.2251 -12.7563 289.574 0 0 0 0 0 0 0 
20504 1 165.214 251.903 289.284 0 0 0 0 0 0 0 
953 1 36.2115 -10.3647 343.286 0 0 0 0 0 0 0 
8148 1 33.0915 -21.5598 291.265 0 0 0 0 0 0 0 
31087 1 164.027 -20.1036 395.764 0 0 0 0 0 0 0 
4249 1 26.21 -7.52993 438.625 0 0 0 0 0 0 0 
8159 5 25.0998 -11.3386 289.16 0 0 0 0 0 0 0 
8153 1 30.234 -16.6414 291.386 0 0 0 0 0 0 0 
9608 1 32.8684 245.532 338.775 0 0 0 0 0 0 0 
19337 1 168.488 239.315 286.607 0 0 0 0 0 0 0 
8147 1 32.3798 -22.7914 291.817 0 0 0 0 0 0 0 
4248 1 26.4356 -7.84779 437.106 0 0 0 0 0 0 0 
948 1 30.7477 -7.94469 345.718 0 0 0 0 0 0 0 
25224 1 160.406 -9.09553 342.63 0 0 0 0 0 0 0 
36163 1 157.516 -19.6225 287.079 0 0 0 0 0 0 0 
25216 1 160.286 -15.4505 345.5 0 0 0 0 0 0 0 
9611 1 30.9835 243.749 335.998 0 0 0 0 0 0 0 
25221 1 163.262 -11.1497 344.466 0 0 0 0 0 0 0 
21875 1 158.265 243.001 290.036 0 0 0 0 0 0 0 
8149 1 32.3955 -20.5713 290.371 0 0 0 0 0 0 0 
20501 1 166.059 251.681 286.316 0 0 0 0 0 0 0 
20502 1 166.952 251.552 287.611 0 0 0 0 0 0 0 
8150 1 32.0318 -19.17 291.044 0 0 0 0 0 0 0 
25222 1 162.166 -10.8472 343.427 0 0 0 0 0 0 0 
25225 1 159.044 -9.5869 343.208 0 0 0 0 0 0 0 
952 1 34.7243 -10.0911 343.375 0 0 0 0 0 0 0 
8155 1 28.7719 -14.6223 290.572 0 0 0 0 0 0 0 
8154 1 28.9752 -16.1465 290.648 0 0 0 0 0 0 0 
21879 1 160.169 238.995 291.231 0 0 0 0 0 0 0 
31082 1 168.437 -16.3982 395.047 0 0 0 0 0 0 0 
9612 1 30.3363 242.36 336.106 0 0 0 0 0 0 0 
25219 1 162.586 -13.4229 345.202 0 0 0 0 0 0 0 
8151 1 32.0644 -17.9651 290.041 0 0 0 0 0 0 0 
9613 1 28.7564 242.421 336.211 0 0 0 0 0 0 0 
949 1 32.1494 -8.50363 345.911 0 0 0 0 0 0 0 
20505 1 165.177 251.818 290.776 0 0 0 0 0 0 0 
25218 1 162.852 -14.9948 345.38 0 0 0 0 0 0 0 
36162 1 157.933 -20.8573 286.159 0 0 0 0 0 0 0 
21876 1 159.007 241.73 290.286 0 0 0 0 0 0 0 
31085 1 165.957 -18.7078 396.202 0 0 0 0 0 0 0 
8146 1 31.8805 -22.5999 293.259 0 0 0 0 0 0 0 
9610 1 31.1921 244.324 337.352 0 0 0 0 0 0 0 
36156 1 162.814 -22.8185 286.501 0 0 0 0 0 0 0 
25226 1 157.795 -9.38466 342.314 0 0 0 0 0 0 0 
31090 1 160.375 -21.8963 395.905 0 0 0 0 0 0 0 
31089 1 161.904 -21.628 395.924 0 0 0 0 0 0 0 
31088 1 162.509 -20.2495 395.654 0 0 0 0 0 0 0 
20460 1 159.244 242.995 301.84 0 0 0 0 0 0 0 
29120 1 28.1273 -13.007 298.53 0 0 0 0 0 0 0 
15072 1 32.2359 237.446 299.655 0 0 0 0 0 0 0 
15070 1 34.3978 236.2 299.982 0 0 0 0 0 0 0 
29114 1 23.8913 -8.25441 296.64 0 0 0 0 0 0 0 
20459 1 160.206 242.353 300.772 0 0 0 0 0 0 0 
29119 1 26.9155 -12.4684 299.266 0 0 0 0 0 0 0 
13526 1 161.677 -21.1914 304.94 0 0 0 0 0 0 0 
20457 1 159.417 239.803 300.875 0 0 0 0 0 0 0 
15074 1 30.1314 238.646 299.148 0 0 0 0 0 0 0 
496 1 35.4267 -8.32311 298.271 0 0 0 0 0 0 0 
32072 1 164.204 -16.2783 304.9 0 0 0 0 0 0 0 
476 1 34.1152 -19.5582 305.013 0 0 0 0 0 0 0 
495 5 36.0001 -9.72253 298.435 0 0 0 0 0 0 0 
32068 1 163.25 -12.0812 303.211 0 0 0 0 0 0 0 
32067 1 163.173 -10.6499 302.558 0 0 0 0 0 0 0 
478 1 33.202 -17.3632 304.437 0 0 0 0 0 0 0 
29123 1 29.8682 -16.2183 300.059 0 0 0 0 0 0 0 
15071 1 33.3561 237.158 300.573 0 0 0 0 0 0 0 
29118 1 25.9916 -11.7685 298.335 0 0 0 0 0 0 0 
29126 1 33.9136 -16.2646 299.546 0 0 0 0 0 0 0 
29115 1 24.7688 -9.06875 297.593 0 0 0 0 0 0 0 
946 1 28.5319 -7.26334 346.587 0 0 0 0 0 0 0 
29122 1 28.9333 -15.2158 299.355 0 0 0 0 0 0 0 
475 1 33.9542 -21.0204 304.514 0 0 0 0 0 0 0 
20455 1 158.023 237.6 300.668 0 0 0 0 0 0 0 
32069 1 164.668 -12.6654 303.272 0 0 0 0 0 0 0 
15075 1 29.2245 237.421 299.085 0 0 0 0 0 0 0 
29116 1 25.7431 -9.89385 296.667 0 0 0 0 0 0 0 
29127 1 33.8336 -14.8225 298.928 0 0 0 0 0 0 0 
29124 1 31.3723 -16.1303 299.533 0 0 0 0 0 0 0 
32071 1 164.42 -14.72 304.886 0 0 0 0 0 0 0 
32070 1 164.803 -14.1797 303.52 0 0 0 0 0 0 0 
947 1 29.8141 -8.10877 346.885 0 0 0 0 0 0 0 
29125 1 32.5997 -16.502 300.353 0 0 0 0 0 0 0 
32066 1 161.789 -10.1646 302.235 0 0 0 0 0 0 0 
20456 1 158.922 238.65 300.046 0 0 0 0 0 0 0 
29128 1 35.2188 -14.2636 298.52 0 0 0 0 0 0 0 
29121 1 29.1768 -13.7373 299.34 0 0 0 0 0 0 0 
32065 1 161.823 -8.87681 301.594 0 0 0 0 0 0 0 
20458 1 159.65 241.054 300.032 0 0 0 0 0 0 0 
29117 1 26.6868 -10.6892 297.468 0 0 0 0 0 0 0 
15076 1 28.317 237.259 300.327 0 0 0 0 0 0 0 
25214 1 158.832 -17.5882 345.901 0 0 0 0 0 0 0 
20462 1 157.999 244.677 300.367 0 0 0 0 0 0 0 
477 1 33.9805 -18.5234 303.857 0 0 0 0 0 0 0 
20461 1 157.907 243.505 301.298 0 0 0 0 0 0 0 
15073 1 31.2286 238.389 300.104 0 0 0 0 0 0 0 
15077 1 27.8124 235.878 300.471 0 0 0 0 0 0 0 
474 1 34.5434 -22.1697 305.304 0 0 0 0 0 0 0 
25213 1 157.936 -18.1785 347.086 0 0 0 0 0 0 0 
13529 1 164.335 -20.3739 304.048 0 0 0 0 0 0 0 
20454 1 157.632 236.401 299.8 0 0 0 0 0 0 0 
13523 1 158.903 -19.7488 304.967 0 0 0 0 0 0 0 
13527 1 162.993 -21.9165 305.28 0 0 0 0 0 0 0 
29129 1 34.9457 -12.9104 297.73 0 0 0 0 0 0 0 
32064 1 162.806 -7.9138 302.278 0 0 0 0 0 0 0 
13528 1 164.251 -21.0382 305.445 0 0 0 0 0 0 0 
25215 1 159.039 -16.0787 346.193 0 0 0 0 0 0 0 
31084 1 166.549 -17.3439 396.414 0 0 0 0 0 0 0 
15069 1 35.43 236.026 301.053 0 0 0 0 0 0 0 
13522 1 157.773 -18.7434 305.039 0 0 0 0 0 0 0 
13524 1 160.18 -19.3449 305.575 0 0 0 0 0 0 0 
25217 1 161.652 -15.649 346.181 0 0 0 0 0 0 0 
473 1 36.0742 -22.0063 305.438 0 0 0 0 0 0 0 
32552 1 167.404 -19.0983 364.187 0 0 0 0 0 0 0 
1075 1 28.5517 -9.01268 307.631 0 0 0 0 0 0 0 
32549 1 168.575 -22.9219 363.708 0 0 0 0 0 0 0 
24304 1 164.789 -20.2391 309.202 0 0 0 0 0 0 0 
24302 1 164.126 -17.7184 309.81 0 0 0 0 0 0 0 
19264 1 161.81 236.294 259.681 0 0 0 0 0 0 0 
24299 1 161.302 -18.0536 312.634 0 0 0 0 0 0 0 
1068 5 28.3648 -12.4699 311.213 0 0 0 0 0 0 0 
24300 1 162.732 -18.0649 312.031 0 0 0 0 0 0 0 
1071 1 30.6717 -12.5939 308.904 0 0 0 0 0 0 0 
19263 1 160.497 235.99 258.945 0 0 0 0 0 0 0 
1076 1 27.6984 -7.91723 307.095 0 0 0 0 0 0 0 
482 1 36.2874 -15.3816 307.077 0 0 0 0 0 0 0 
1072 1 29.6531 -11.6291 308.333 0 0 0 0 0 0 0 
1073 1 30.1724 -10.8127 307.134 0 0 0 0 0 0 0 
24303 1 164.993 -18.9084 310.031 0 0 0 0 0 0 0 
32551 1 168.298 -20.3148 363.83 0 0 0 0 0 0 0 
24306 1 165.901 -22.5624 308.824 0 0 0 0 0 0 0 
1070 1 30.2567 -13.6067 309.961 0 0 0 0 0 0 0 
13521 1 157.587 -18.0463 306.407 0 0 0 0 0 0 0 
32051 5 165.952 -10.2104 315.916 0 0 0 0 0 0 0 
1069 1 29.7659 -13.0434 311.269 0 0 0 0 0 0 0 
481 1 35.0267 -14.9426 306.345 0 0 0 0 0 0 0 
24298 1 160.668 -19.4202 312.914 0 0 0 0 0 0 0 
20519 1 169.815 243.554 313.494 0 0 0 0 0 0 0 
24301 1 162.742 -17.9284 310.454 0 0 0 0 0 0 0 
32550 1 167.712 -21.6861 364.245 0 0 0 0 0 0 0 
32554 1 166.719 -17.372 365.978 0 0 0 0 0 0 0 
32553 1 167.44 -18.7001 365.654 0 0 0 0 0 0 0 
20516 6 168.622 249.674 306.868 -0.111572 0.341337 -0.898206 0.253508 2.345 2.345 8.755 
480 1 33.6735 -15.7945 306.508 0 0 0 0 0 0 0 
24296 1 159.618 -18.6517 315.12 0 0 0 0 0 0 0 
20520 1 170.16 242.462 312.464 0 0 0 0 0 0 0 
479 1 33.7853 -17.1325 305.827 0 0 0 0 0 0 0 
24305 1 165.873 -21.26 309.636 0 0 0 0 0 0 0 
19262 1 159.109 236.025 259.723 0 0 0 0 0 0 0 
24297 1 159.407 -19.3428 313.779 0 0 0 0 0 0 0 
1074 1 29.0513 -9.8515 306.533 0 0 0 0 0 0 0 
13525 1 161.053 -20.4637 306.127 0 0 0 0 0 0 0 
19268 1 162.815 235.821 264.369 0 0 0 0 0 0 0 
32073 1 163.254 -16.6867 306.035 0 0 0 0 0 0 0 
32074 5 161.745 -16.2548 305.885 0 0 0 0 0 0 0 
561 1 28.5943 4.8182 275.586 0 0 0 0 0 0 0 
558 1 27.5662 2.72769 272.448 0 0 0 0 0 0 0 
32568 5 169.321 -6.82579 368.072 0 0 0 0 0 0 0 
557 1 26.0554 2.65015 272.552 0 0 0 0 0 0 0 
1159 6 35.3369 5.85348 274.039 0.0661109 0.832642 0.536141 -0.122025 2.345 2.345 8.755 
400 1 26.7911 -1.32652 265.996 0 0 0 0 0 0 0 
399 1 26.421 -0.592039 267.272 0 0 0 0 0 0 0 
392 1 29.94 5.58783 267.295 0 0 0 0 0 0 0 
1892 1 24.1307 4.52498 318.512 0 0 0 0 0 0 0 
574 6 31.3388 4.66782 271.494 0.521247 0.326092 -0.160056 0.772235 2.345 2.345 8.755 
554 1 23.2152 2.85787 271.182 0 0 0 0 0 0 0 
1893 1 24.7309 3.83467 317.216 0 0 0 0 0 0 0 
575 5 33.8381 -2.4918 273.209 0 0 0 0 0 0 0 
1890 1 23.9894 6.5274 320.037 0 0 0 0 0 0 0 
556 1 25.5099 1.67694 271.424 0 0 0 0 0 0 0 
401 5 27.2342 -2.75455 266.277 0 0 0 0 0 0 0 
560 1 28.3385 3.52115 274.78 0 0 0 0 0 0 0 
555 1 23.9752 1.58716 271.65 0 0 0 0 0 0 0 
576 1 35.0253 -3.31024 273.68 0 0 0 0 0 0 0 
1889 1 25.251 6.42627 320.813 0 0 0 0 0 0 0 
393 1 31.0055 4.54962 267.098 0 0 0 0 0 0 0 
29084 6 35.7679 5.01571 317.849 0.574024 -0.704768 -0.416373 0.0208075 2.345 2.345 8.755 
1887 1 24.0684 6.93101 323.058 0 0 0 0 0 0 0 
396 1 29.682 1.1979 268.675 0 0 0 0 0 0 0 
398 1 27.5306 -0.258319 268.196 0 0 0 0 0 0 0 
394 1 30.5166 3.09054 267.254 0 0 0 0 0 0 0 
395 1 30.1402 2.62771 268.641 0 0 0 0 0 0 0 
397 1 28.334 1.00857 267.859 0 0 0 0 0 0 0 
1891 1 24.0048 6.05873 318.56 0 0 0 0 0 0 0 
559 1 28.0453 3.95458 273.325 0 0 0 0 0 0 0 
1886 1 23.7088 5.88184 324.117 0 0 0 0 0 0 0 
1888 1 25.3518 6.87708 322.27 0 0 0 0 0 0 0 
391 1 30.2396 6.86186 266.45 0 0 0 0 0 0 0 
577 1 35.1528 -4.66039 272.997 0 0 0 0 0 0 0 
1894 1 23.7302 3.84941 316.059 0 0 0 0 0 0 0 
562 1 29.758 5.80664 275.179 0 0 0 0 0 0 0 
565 1 28.9749 8.87175 275.104 0 0 0 0 0 0 0 
19299 5 157.23 256.861 270.988 0 0 0 0 0 0 0 
19317 1 157.671 259.107 275.435 0 0 0 0 0 0 0 
19316 1 158.651 260.303 275.31 0 0 0 0 0 0 0 
19300 6 163.494 257.072 275.588 -0.337461 0.338865 -0.710945 0.515605 2.345 2.345 8.755 
19310 1 163.314 261.1 280.404 0 0 0 0 0 0 0 
24259 1 161.148 -2.68851 283.753 0 0 0 0 0 0 0 
24261 1 158.829 -1.68594 283.951 0 0 0 0 0 0 0 
24260 1 159.693 -2.93255 283.947 0 0 0 0 0 0 0 
19307 1 166.114 259.438 280.262 0 0 0 0 0 0 0 
19306 1 167.327 259.44 281.165 0 0 0 0 0 0 0 
19314 1 160.041 259.721 277.343 0 0 0 0 0 0 0 
24255 1 165.695 -4.60943 282.633 0 0 0 0 0 0 0 
19308 1 164.764 258.949 280.813 0 0 0 0 0 0 0 
19315 1 160.108 259.975 275.835 0 0 0 0 0 0 0 
19311 1 162.174 260.377 279.729 0 0 0 0 0 0 0 
4258 6 31.2708 6.72561 434.902 -0.687377 0.420266 0.401559 0.435476 2.345 2.345 8.755 
19304 1 168.316 257.767 282.963 0 0 0 0 0 0 0 
19301 5 169.758 257.28 280.189 0 0 0 0 0 0 0 
19305 1 167.282 258.012 281.831 0 0 0 0 0 0 0 
19309 1 164.167 260.249 281.414 0 0 0 0 0 0 0 
19302 1 170.292 256.976 281.588 0 0 0 0 0 0 0 
19303 1 169.844 258.034 282.611 0 0 0 0 0 0 0 
24252 1 168.586 -6.12632 280.455 0 0 0 0 0 0 0 
24253 1 168.02 -5.28374 281.585 0 0 0 0 0 0 0 
24241 6 160.51 -4.62134 279.21 -0.21386 -0.610356 0.382918 -0.659624 2.345 2.345 8.755 
1882 6 25.423 2.74388 333.624 -0.908076 0.271056 0.290559 0.132298 2.345 2.345 8.755 
564 1 29.2181 7.98891 276.424 0 0 0 0 0 0 0 
24257 1 163.447 -3.95284 283.549 0 0 0 0 0 0 0 
24258 1 161.931 -4.02514 283.366 0 0 0 0 0 0 0 
24251 1 170.141 -6.19093 280.411 0 0 0 0 0 0 0 
19312 1 161.409 261.263 278.737 0 0 0 0 0 0 0 
24262 1 157.372 -1.53928 284.189 0 0 0 0 0 0 0 
24256 1 164.22 -4.9772 282.766 0 0 0 0 0 0 0 
517 6 34.9416 6.49151 279.977 0.580891 -0.650678 -0.482526 -0.0797019 2.345 2.345 8.755 
620 6 36.2667 8.94648 285.477 -0.552287 0.600487 0.529981 0.231331 2.345 2.345 8.755 
19313 1 159.982 260.845 278.362 0 0 0 0 0 0 0 
24254 1 166.51 -5.20274 281.454 0 0 0 0 0 0 0 
563 1 30.1988 6.87813 276.157 0 0 0 0 0 0 0 
1091 5 28.3179 8.08509 290.063 0 0 0 0 0 0 0 
24538 1 23.3777 0.356521 394.526 0 0 0 0 0 0 0 
503 1 35.5473 -5.6054 292.672 0 0 0 0 0 0 0 
940 1 25.254 -2.82182 344.203 0 0 0 0 0 0 0 
1881 5 28.24 0.206227 340.412 0 0 0 0 0 0 0 
1878 1 29.4187 0.653284 344.082 0 0 0 0 0 0 0 
1879 1 28.4829 0.325582 342.954 0 0 0 0 0 0 0 
937 1 22.8927 -5.14192 342.255 0 0 0 0 0 0 0 
504 1 35.479 -5.61223 291.143 0 0 0 0 0 0 0 
939 1 24.6602 -3.39349 342.905 0 0 0 0 0 0 0 
20507 1 165.405 253.587 292.696 0 0 0 0 0 0 0 
20508 1 165.907 255.056 293.047 0 0 0 0 0 0 0 