ITEM: TIMESTEP
65000
ITEM: NUMBER OF ATOMS
41400
ITEM: BOX BOUNDS pp pp pp
-18.50152500380148 96.5015250038053
-17.7519712126924 95.75197121269242
13.1265479735487 322.873452026446
ITEM: ATOMS id type xu yu zu c_orient[1] c_orient[2] c_orient[3] c_orient[4] c_shape[1] c_shape[2] c_shape[3]
1 1 5.666 -10.1552 60.9435 0 0 0 0 0 0 0
2 1 7.08534 -10.2463 61.5244 0 0 0 0 0 0 0
3 1 7.25436 -11.4875 62.2811 0 0 0 0 0 0 0
4 1 5.95942 -11.7495 63.1115 0 0 0 0 0 0 0
5 1 6.00953 -12.9757 63.9002 0 0 0 0 0 0 0
6 1 5.03125 -12.8265 65.1063 0 0 0 0 0 0 0
7 1 5.16793 -11.4619 66.0141 0 0 0 0 0 0 0
8 1 6.17363 -11.5728 67.0461 0 0 0 0 0 0 0
9 1 5.59088 -12.3593 68.1768 0 0 0 0 0 0 0
10 1 4.78123 -11.5069 69.137 0 0 0 0 0 0 0
11 5 3.44413 -10.8395 68.5544 0 0 0 0 0 0 0
12 6 -3.60852 -12.2133 65.584 0.200077 0.806842 -0.234479 -0.503979 2.345 2.345 8.755
13 5 -10.6612 -13.5872 62.6135 0 0 0 0 0 0 0
14 1 -11.6947 -13.1553 61.5158 0 0 0 0 0 0 0
15 1 -12.7347 -12.1169 62.1006 0 0 0 0 0 0 0
16 1 -12.0561 -10.7492 62.6052 0 0 0 0 0 0 0
17 1 -12.9756 -9.83778 63.362 0 0 0 0 0 0 0
18 1 -13.932 -8.98597 62.5056 0 0 0 0 0 0 0
19 1 -14.9105 -8.22911 63.3916 0 0 0 0 0 0 0
20 1 -14.1019 -7.22174 64.1161 0 0 0 0 0 0 0
21 1 -14.674 -6.61588 65.4677 0 0 0 0 0 0 0
22 1 -13.8896 -5.32271 65.7543 0 0 0 0 0 0 0
23 1 -13.997 -5.01999 67.2244 0 0 0 0 0 0 0
24 1 -12.9487 -4.13384 67.7572 0 0 0 0 0 0 0
25 1 -13.0732 -3.54262 69.186 0 0 0 0 0 0 0
26 1 -11.7149 -2.76767 69.524 0 0 0 0 0 0 0
27 1 -10.6899 -3.84655 69.3787 0 0 0 0 0 0 0
28 1 -9.49272 -3.97638 70.3255 0 0 0 0 0 0 0
29 1 -8.55054 -5.08182 70.0936 0 0 0 0 0 0 0
30 1 -7.465 -5.20837 71.126 0 0 0 0 0 0 0
31 1 -6.6059 -6.41472 71.0878 0 0 0 0 0 0 0
32 1 -5.80847 -6.61722 72.3535 0 0 0 0 0 0 0
33 1 -5.49549 -8.12464 72.3663 0 0 0 0 0 0 0
34 5 -5.26791 -8.33885 73.8841 0 0 0 0 0 0 0
35 6 -8.74936 -9.30932 80.768 0.227839 0.0734385 -0.97015 -0.0387841 2.345 2.345 8.755
36 5 -12.2308 -10.2798 87.6519 0 0 0 0 0 0 0
37 1 -13.0878 -9.62991 88.7089 0 0 0 0 0 0 0
38 1 -12.2129 -8.78656 89.7293 0 0 0 0 0 0 0
39 1 -12.8281 -8.65612 91.052 0 0 0 0 0 0 0
40 1 -12.8484 -10.1981 91.6015 0 0 0 0 0 0 0
41 1 -13.2985 -10.6305 93.0441 0 0 0 0 0 0 0
42 1 -12.4196 -10.2517 94.2259 0 0 0 0 0 0 0
43 1 -12.5672 -8.78302 94.6686 0 0 0 0 0 0 0
44 1 -13.6066 -8.49167 95.7202 0 0 0 0 0 0 0
45 1 -13.87 -7.06823 95.7424 0 0 0 0 0 0 0
46 1 -15.242 -6.67164 96.0885 0 0 0 0 0 0 0
47 1 -15.634 -6.62472 97.5287 0 0 0 0 0 0 0
48 1 -14.6988 -5.76454 98.2838 0 0 0 0 0 0 0
49 1 -15.0774 -5.62015 99.767 0 0 0 0 0 0 0
50 1 -14.1024 -4.81376 100.71 0 0 0 0 0 0 0
51 1 -14.0784 -5.44287 102.101 0 0 0 0 0 0 0
52 1 -15.2754 -5.65503 102.978 0 0 0 0 0 0 0
53 1 -14.7405 -6.662 104.121 0 0 0 0 0 0 0
54 1 -15.6721 -7.62043 104.812 0 0 0 0 0 0 0
55 1 -15.5049 -8.96973 104.345 0 0 0 0 0 0 0
56 1 -16.3671 -9.8971 105.15 0 0 0 0 0 0 0
57 5 -15.9683 -11.1484 105.917 0 0 0 0 0 0 0
58 6 -14.1675 -13.9894 112.927 0.220446 -0.0248336 0.61094 0.75996 2.345 2.345 8.755
59 5 -12.3668 -16.8304 119.937 0 0 0 0 0 0 0
60 1 -12.8972 -17.0886 121.324 0 0 0 0 0 0 0
61 1 -14.4141 -17.1319 121.377 0 0 0 0 0 0 0
62 1 -15.1095 -15.8095 121.023 0 0 0 0 0 0 0
63 1 -16.5659 -15.9118 121.714 0 0 0 0 0 0 0
64 1 -16.9309 -14.4928 122.31 0 0 0 0 0 0 0
65 1 -18.2326 -13.9604 121.751 0 0 0 0 0 0 0
66 1 -17.9375 -12.4703 121.305 0 0 0 0 0 0 0
67 1 -17.8164 -11.9866 122.77 0 0 0 0 0 0 0
68 1 -18.4543 -10.6321 122.678 0 0 0 0 0 0 0
69 1 -18.4216 -9.79452 123.998 0 0 0 0 0 0 0
70 1 -19.2453 -10.4825 125.201 0 0 0 0 0 0 0
71 1 -18.2475 -10.4997 126.305 0 0 0 0 0 0 0
72 1 -18.8058 -11.0712 127.61 0 0 0 0 0 0 0
73 1 -17.7189 -11.1603 128.726 0 0 0 0 0 0 0
74 1 -17.4602 -9.83408 129.473 0 0 0 0 0 0 0
75 1 -16.0446 -9.55655 130.155 0 0 0 0 0 0 0
76 1 -16.1166 -8.30069 130.91 0 0 0 0 0 0 0
77 1 -14.6676 -7.85001 131.223 0 0 0 0 0 0 0
78 1 -14.5003 -6.33258 131.224 0 0 0 0 0 0 0
79 1 -15.0522 -5.73521 132.401 0 0 0 0 0 0 0
80 5 -14.1741 -5.84064 133.687 0 0 0 0 0 0 0
81 6 -14.1166 -7.591 141.263 0.10132 -0.0508295 0.474433 0.872963 2.345 2.345 8.755
82 5 -14.0591 -9.34136 148.838 0 0 0 0 0 0 0
83 1 -13.2173 -9.34774 150.098 0 0 0 0 0 0 0
84 1 -11.7205 -9.90433 150.049 0 0 0 0 0 0 0
85 1 -11.6895 -11.4655 150.287 0 0 0 0 0 0 0
86 1 -10.3302 -12.2157 150.098 0 0 0 0 0 0 0
87 1 -10.1076 -13.5729 150.789 0 0 0 0 0 0 0
88 1 -9.9527 -14.6174 149.74 0 0 0 0 0 0 0
89 1 -9.99901 -16.0659 150.373 0 0 0 0 0 0 0
90 1 -8.93646 -16.4711 151.349 0 0 0 0 0 0 0
91 1 -9.34475 -17.5924 152.247 0 0 0 0 0 0 0
92 1 -8.18812 -17.6999 153.38 0 0 0 0 0 0 0
93 1 -8.49232 -18.6478 154.444 0 0 0 0 0 0 0
94 1 -7.48299 -18.5977 155.509 0 0 0 0 0 0 0
95 1 -6.26004 -19.3676 155.225 0 0 0 0 0 0 0
96 1 -4.97926 -18.9712 155.951 0 0 0 0 0 0 0
97 1 -3.83062 -19.9432 155.937 0 0 0 0 0 0 0
98 1 -2.58887 -19.0827 156.279 0 0 0 0 0 0 0
99 1 -1.69604 -19.9739 157.182 0 0 0 0 0 0 0
100 1 -0.733516 -18.9709 157.733 0 0 0 0 0 0 0
101 1 -1.17944 -17.5836 158.336 0 0 0 0 0 0 0
102 1 -0.131063 -17.0754 159.362 0 0 0 0 0 0 0
103 5 -0.570396 -15.8368 160.166 0 0 0 0 0 0 0
104 6 -2.26968 -13.0811 167.235 0.159983 -0.14076 -0.934354 -0.285611 2.345 2.345 8.755
105 5 -3.96896 -10.3254 174.304 0 0 0 0 0 0 0
106 1 -4.54505 -9.12619 175.07 0 0 0 0 0 0 0
107 1 -5.92377 -9.41353 175.74 0 0 0 0 0 0 0
108 1 -6.57421 -8.46906 176.69 0 0 0 0 0 0 0
109 1 -7.00765 -7.15266 176.131 0 0 0 0 0 0 0
110 1 -7.06561 -6.07879 177.256 0 0 0 0 0 0 0
111 1 -8.37488 -6.19314 178.077 0 0 0 0 0 0 0
112 1 -8.45307 -6.57712 179.62 0 0 0 0 0 0 0
113 1 -9.59756 -5.82065 180.257 0 0 0 0 0 0 0
114 1 -11.033 -6.24547 179.869 0 0 0 0 0 0 0
115 1 -11.9955 -5.70827 180.822 0 0 0 0 0 0 0
116 1 -13.0325 -4.84402 179.971 0 0 0 0 0 0 0
117 1 -14.5051 -5.21541 179.84 0 0 0 0 0 0 0
118 1 -15.4977 -5.09829 181.146 0 0 0 0 0 0 0
119 1 -16.9422 -5.3088 180.949 0 0 0 0 0 0 0
120 1 -17.4658 -6.20628 182.093 0 0 0 0 0 0 0
121 1 -16.6889 -7.59302 182.187 0 0 0 0 0 0 0
122 1 -17.4927 -8.75481 182.926 0 0 0 0 0 0 0
123 1 -17.572 -8.25042 184.436 0 0 0 0 0 0 0
124 1 -18.9122 -8.68987 185.247 0 0 0 0 0 0 0
125 1 -19.3036 -10.1596 185.151 0 0 0 0 0 0 0
126 5 -18.2968 -11.1597 185.737 0 0 0 0 0 0 0
127 6 -13.8344 -12.8657 191.871 0.246265 0.211843 0.44948 0.832132 2.345 2.345 8.755
128 5 -9.37196 -14.5716 198.005 0 0 0 0 0 0 0
129 1 -8.17377 -14.0435 198.968 0 0 0 0 0 0 0
130 1 -8.58603 -12.7583 199.616 0 0 0 0 0 0 0
131 1 -9.62159 -13.2312 200.696 0 0 0 0 0 0 0
132 1 -9.00876 -13.9927 201.956 0 0 0 0 0 0 0
133 1 -9.82821 -13.9698 203.245 0 0 0 0 0 0 0
134 1 -8.88195 -14.2494 204.464 0 0 0 0 0 0 0
135 1 -9.29657 -14.0053 205.957 0 0 0 0 0 0 0
136 1 -8.19786 -14.237 206.986 0 0 0 0 0 0 0
137 1 -7.21002 -13.1438 206.986 0 0 0 0 0 0 0
138 1 -6.39107 -13.3219 208.223 0 0 0 0 0 0 0
139 1 -5.46999 -12.0964 208.415 0 0 0 0 0 0 0
140 1 -4.14933 -12.5712 208.208 0 0 0 0 0 0 0
141 1 -2.99515 -11.6766 208.818 0 0 0 0 0 0 0
142 1 -3.19868 -11.3888 210.32 0 0 0 0 0 0 0
143 1 -2.85171 -12.5011 211.129 0 0 0 0 0 0 0
144 1 -3.67205 -12.4039 212.342 0 0 0 0 0 0 0
145 1 -5.21173 -12.2869 212.195 0 0 0 0 0 0 0
146 1 -5.99727 -12.1807 213.463 0 0 0 0 0 0 0
147 1 -5.55859 -11.1127 214.453 0 0 0 0 0 0 0
148 1 -6.79951 -10.8692 215.382 0 0 0 0 0 0 0
149 5 -6.93244 -11.9896 216.382 0 0 0 0 0 0 0
150 6 -5.64463 -14.211 223.721 -0.0726624 0.150908 -0.982979 0.0754865 2.345 2.345 8.755
151 5 -4.35682 -16.4324 231.06 0 0 0 0 0 0 0
152 1 -4.2207 -15.9272 232.465 0 0 0 0 0 0 0
153 1 -4.17488 -16.958 233.609 0 0 0 0 0 0 0
154 1 -4.33485 -16.319 235.028 0 0 0 0 0 0 0
155 1 -4.59691 -17.331 236.112 0 0 0 0 0 0 0
156 1 -3.91869 -17.0066 237.328 0 0 0 0 0 0 0
157 1 -4.37242 -15.5637 237.844 0 0 0 0 0 0 0
158 1 -3.62111 -15.284 239.151 0 0 0 0 0 0 0
159 1 -4.0624 -14.2089 240.167 0 0 0 0 0 0 0
160 1 -3.52822 -14.3454 241.683 0 0 0 0 0 0 0
161 1 -2.06088 -14.8544 241.688 0 0 0 0 0 0 0
162 1 -1.47174 -14.7269 243.082 0 0 0 0 0 0 0
163 1 -2.04271 -15.6816 244.038 0 0 0 0 0 0 0
164 1 -2.00055 -17.1305 243.661 0 0 0 0 0 0 0
165 1 -2.47997 -18.1057 244.724 0 0 0 0 0 0 0
166 1 -2.42784 -19.5832 244.123 0 0 0 0 0 0 0
167 1 -3.06373 -20.59 245.133 0 0 0 0 0 0 0
168 1 -4.519 -20.1994 245.658 0 0 0 0 0 0 0
169 1 -4.77965 -20.5618 247.07 0 0 0 0 0 0 0
170 1 -5.98519 -19.8753 247.752 0 0 0 0 0 0 0
171 1 -6.68699 -20.5389 248.979 0 0 0 0 0 0 0
172 5 -6.56905 -19.7426 250.305 0 0 0 0 0 0 0
173 6 -8.89443 -19.493 257.719 -0.138158 0.0637895 0.936423 -0.316158 2.345 2.345 8.755
174 5 -11.2198 -19.2433 265.134 0 0 0 0 0 0 0
175 1 -10.9026 -18.728 266.416 0 0 0 0 0 0 0
176 1 -10.4291 -19.7752 267.402 0 0 0 0 0 0 0
177 1 -8.94589 -20.2531 267.178 0 0 0 0 0 0 0
178 1 -8.20241 -20.4109 265.83 0 0 0 0 0 0 0
179 1 -6.99212 -21.3254 265.68 0 0 0 0 0 0 0
180 1 -7.23121 -22.6902 264.929 0 0 0 0 0 0 0
181 1 -5.97093 -23.388 264.406 0 0 0 0 0 0 0
182 1 -5.10628 -22.6625 263.269 0 0 0 0 0 0 0
183 1 -5.77508 -22.4227 261.674 0 0 0 0 0 0 0
184 1 -6.1142 -21.03 261.183 0 0 0 0 0 0 0
185 1 -14.6889 -34.4305 73.8188 0 0 0 0 0 0 0
186 1 -13.9189 -35.0008 74.9674 0 0 0 0 0 0 0
187 1 -14.7528 -35.2407 76.2522 0 0 0 0 0 0 0
188 1 -13.8887 -35.2793 77.5224 0 0 0 0 0 0 0
189 1 -13.7334 -33.8405 78.1064 0 0 0 0 0 0 0
190 1 -12.3766 -33.3707 78.8691 0 0 0 0 0 0 0
191 1 -11.1931 -33.756 78.1111 0 0 0 0 0 0 0
192 1 -9.86375 -33.2066 78.7338 0 0 0 0 0 0 0
193 1 -8.87133 -32.9252 77.5504 0 0 0 0 0 0 0
194 1 -7.43778 -33.066 78.0869 0 0 0 0 0 0 0
195 5 -7.24879 -32.4496 79.3983 0 0 0 0 0 0 0
196 6 -9.3031 -26.4359 83.8778 -0.447497 0.108035 0.476106 0.749265 2.345 2.345 8.755
197 5 -11.3574 -20.4223 88.3574 0 0 0 0 0 0 0
198 1 -10.8612 -19.2363 89.0731 0 0 0 0 0 0 0
199 1 -10.988 -19.5312 90.5215 0 0 0 0 0 0 0
200 1 -12.2156 -20.244 91.0552 0 0 0 0 0 0 0
201 1 -11.8906 -20.3927 92.5454 0 0 0 0 0 0 0
202 1 -10.3724 -20.8935 92.7915 0 0 0 0 0 0 0
203 1 -9.81769 -21.0309 94.2077 0 0 0 0 0 0 0
204 1 -8.45989 -21.9002 94.4551 0 0 0 0 0 0 0
205 1 -8.2084 -22.1797 95.9097 0 0 0 0 0 0 0
206 1 -6.72857 -22.5812 96.0891 0 0 0 0 0 0 0
207 1 -6.11746 -22.0649 97.4174 0 0 0 0 0 0 0
208 1 -6.0203 -20.4822 97.32 0 0 0 0 0 0 0
209 1 -5.99028 -19.8925 98.8395 0 0 0 0 0 0 0
210 1 -6.06404 -18.298 98.9969 0 0 0 0 0 0 0
211 1 -7.21013 -17.7392 99.7712 0 0 0 0 0 0 0
212 1 -7.41399 -18.2085 101.151 0 0 0 0 0 0 0
213 1 -7.23633 -17.0959 102.124 0 0 0 0 0 0 0
214 1 -7.20083 -17.5322 103.615 0 0 0 0 0 0 0
215 1 -6.64731 -16.479 104.572 0 0 0 0 0 0 0
216 1 -7.29942 -16.4412 105.929 0 0 0 0 0 0 0
217 1 -7.28434 -17.9161 106.58 0 0 0 0 0 0 0
218 5 -8.11856 -17.7027 107.867 0 0 0 0 0 0 0
219 6 -7.92333 -18.0927 115.63 0.0280263 -0.00131283 0.488805 0.871942 2.345 2.345 8.755
220 5 -7.72811 -18.4827 123.393 0 0 0 0 0 0 0
221 1 -7.02072 -19.1187 124.598 0 0 0 0 0 0 0
222 1 -5.91651 -18.3168 125.252 0 0 0 0 0 0 0
223 1 -6.12807 -18.2087 126.768 0 0 0 0 0 0 0
224 1 -6.34058 -19.5404 127.419 0 0 0 0 0 0 0
225 1 -6.61569 -19.3252 128.831 0 0 0 0 0 0 0
226 1 -7.97088 -19.058 129.426 0 0 0 0 0 0 0
227 1 -8.96819 -20.1324 128.903 0 0 0 0 0 0 0
228 1 -10.4391 -19.6635 129.055 0 0 0 0 0 0 0
229 1 -10.7213 -18.5206 128.131 0 0 0 0 0 0 0
230 1 -11.9177 -17.6589 128.328 0 0 0 0 0 0 0
231 1 -13.4094 -18.2629 128.147 0 0 0 0 0 0 0
232 1 -14.4262 -17.1938 128.684 0 0 0 0 0 0 0
233 1 -14.6379 -16.9758 130.212 0 0 0 0 0 0 0
234 1 -15.3587 -15.7836 130.589 0 0 0 0 0 0 0
235 1 -15.1572 -15.5208 132.158 0 0 0 0 0 0 0
236 1 -15.9077 -14.2168 132.464 0 0 0 0 0 0 0
237 1 -15.4251 -13.1243 131.621 0 0 0 0 0 0 0
238 1 -14.0278 -12.7125 132.225 0 0 0 0 0 0 0
239 1 -13.4591 -11.2667 132.052 0 0 0 0 0 0 0
240 1 -11.8061 -11.2506 132.027 0 0 0 0 0 0 0
241 5 -11.452 -12.1806 133.18 0 0 0 0 0 0 0
242 6 -9.13724 -12.5015 140.595 0.151762 0.00931469 0.968856 0.195447 2.345 2.345 8.755
243 5 -6.82253 -12.8224 148.011 0 0 0 0 0 0 0
244 1 -6.59045 -12.0318 149.211 0 0 0 0 0 0 0
245 1 -6.36514 -10.5614 148.91 0 0 0 0 0 0 0
246 1 -4.8983 -10.2332 148.225 0 0 0 0 0 0 0
247 1 -4.57068 -10.5905 146.706 0 0 0 0 0 0 0
248 1 -5.27803 -9.55299 145.899 0 0 0 0 0 0 0
249 1 -4.8088 -8.0717 146.026 0 0 0 0 0 0 0
250 1 -3.8911 -7.73067 144.895 0 0 0 0 0 0 0
251 1 -2.94703 -6.60674 145.182 0 0 0 0 0 0 0
252 1 -1.5616 -7.28412 145.305 0 0 0 0 0 0 0
253 1 -0.630402 -6.43937 146.25 0 0 0 0 0 0 0
254 1 -1.06862 -6.77902 147.694 0 0 0 0 0 0 0
255 1 -0.161631 -6.19593 148.854 0 0 0 0 0 0 0
256 1 -0.48126 -6.82344 150.17 0 0 0 0 0 0 0
257 1 -0.465001 -5.87186 151.262 0 0 0 0 0 0 0
258 1 -1.53756 -4.75335 151.27 0 0 0 0 0 0 0
259 1 -2.72093 -5.04874 152.098 0 0 0 0 0 0 0
260 1 -2.43452 -5.41875 153.564 0 0 0 0 0 0 0
261 1 -3.54207 -6.22714 154.273 0 0 0 0 0 0 0
262 1 -3.41037 -6.36775 155.767 0 0 0 0 0 0 0
263 1 -2.49028 -5.39786 156.569 0 0 0 0 0 0 0
264 5 -2.83593 -5.2833 158.123 0 0 0 0 0 0 0
265 6 -0.468013 -7.13489 165.293 -0.162328 -0.111928 -0.292998 -0.935561 2.345 2.345 8.755
266 5 1.8999 -8.98648 172.463 0 0 0 0 0 0 0
267 1 1.47606 -9.05841 173.977 0 0 0 0 0 0 0
268 1 1.59524 -10.5023 174.615 0 0 0 0 0 0 0
269 1 0.682392 -10.5793 175.854 0 0 0 0 0 0 0
270 1 0.705147 -9.3489 176.759 0 0 0 0 0 0 0
271 1 -0.416081 -9.47062 177.779 0 0 0 0 0 0 0
272 1 -0.423215 -8.61156 179.065 0 0 0 0 0 0 0
273 1 -0.669718 -7.16805 178.923 0 0 0 0 0 0 0
274 1 -1.30973 -6.58561 180.129 0 0 0 0 0 0 0
275 1 -2.03705 -5.36744 179.698 0 0 0 0 0 0 0
276 1 -3.55636 -5.43764 179.701 0 0 0 0 0 0 0
277 1 -3.84627 -5.84994 181.13 0 0 0 0 0 0 0
278 1 -4.07182 -4.62528 182.056 0 0 0 0 0 0 0
279 1 -4.20867 -5.34916 183.394 0 0 0 0 0 0 0
280 1 -4.16337 -4.53971 184.661 0 0 0 0 0 0 0
281 1 -5.13504 -5.0888 185.715 0 0 0 0 0 0 0
282 1 -4.37491 -5.45779 186.925 0 0 0 0 0 0 0
283 1 -5.127 -6.09693 188.148 0 0 0 0 0 0 0
284 1 -5.79911 -7.49285 187.93 0 0 0 0 0 0 0
285 1 -4.84271 -8.63694 187.526 0 0 0 0 0 0 0
286 1 -3.99657 -9.03009 188.694 0 0 0 0 0 0 0
287 5 -4.71615 -9.96972 189.538 0 0 0 0 0 0 0
288 6 -4.63094 -13.7632 196.324 -0.0793837 -0.239342 0.91141 -0.325186 2.345 2.345 8.755
289 5 -4.54573 -17.5566 203.11 0 0 0 0 0 0 0
290 1 -4.38537 -17.4092 204.56 0 0 0 0 0 0 0
291 1 -5.09411 -16.0494 205.162 0 0 0 0 0 0 0
292 1 -4.51054 -15.8531 206.568 0 0 0 0 0 0 0
293 1 -4.75396 -17.0467 207.481 0 0 0 0 0 0 0
294 1 -4.77189 -16.7105 208.93 0 0 0 0 0 0 0
295 1 -5.95311 -17.6605 209.479 0 0 0 0 0 0 0
296 1 -6.02764 -17.6589 211.041 0 0 0 0 0 0 0
297 1 -7.20571 -18.5157 211.546 0 0 0 0 0 0 0
298 1 -8.33762 -17.5095 211.979 0 0 0 0 0 0 0
299 1 -7.85932 -16.36 212.834 0 0 0 0 0 0 0
300 1 -7.25988 -16.6177 214.156 0 0 0 0 0 0 0
301 1 -8.08726 -17.0058 215.48 0 0 0 0 0 0 0
302 1 -7.43146 -18.1303 216.1 0 0 0 0 0 0 0
303 1 -8.00109 -18.5432 217.541 0 0 0 0 0 0 0
304 1 -6.93696 -19.3168 218.461 0 0 0 0 0 0 0
305 1 -6.10952 -18.6691 219.598 0 0 0 0 0 0 0
306 1 -5.84387 -19.9256 220.544 0 0 0 0 0 0 0
307 1 -4.70034 -19.5729 221.502 0 0 0 0 0 0 0
308 1 -4.45288 -20.4495 222.71 0 0 0 0 0 0 0
309 1 -4.08346 -19.8466 224.028 0 0 0 0 0 0 0
310 5 -4.51395 -20.8189 225.221 0 0 0 0 0 0 0
311 6 -2.24651 -24.1533 231.869 0.267503 -0.0306721 0.628744 0.729508 2.345 2.345 8.755
312 5 0.0209227 -27.4876 238.517 0 0 0 0 0 0 0
313 1 -0.292675 -27.6424 240.017 0 0 0 0 0 0 0
314 1 -0.751267 -26.3274 240.865 0 0 0 0 0 0 0
315 1 -0.271515 -26.4321 242.325 0 0 0 0 0 0 0
316 1 0.813701 -25.3274 242.617 0 0 0 0 0 0 0
317 1 1.82488 -25.7458 243.818 0 0 0 0 0 0 0
318 1 2.96219 -26.7637 243.49 0 0 0 0 0 0 0
319 1 3.43215 -27.5304 244.653 0 0 0 0 0 0 0
320 1 4.5872 -28.3941 244.324 0 0 0 0 0 0 0
321 1 5.7562 -28.1662 245.321 0 0 0 0 0 0 0
322 1 5.51995 -28.4064 246.865 0 0 0 0 0 0 0
323 1 6.61068 -27.6714 247.694 0 0 0 0 0 0 0
324 1 5.8937 -26.7065 248.674 0 0 0 0 0 0 0
325 1 6.19301 -26.8251 250.005 0 0 0 0 0 0 0
326 1 7.67606 -26.4974 250.533 0 0 0 0 0 0 0
327 1 7.64396 -25.8366 252.031 0 0 0 0 0 0 0
328 1 7.24552 -26.8364 253.142 0 0 0 0 0 0 0
329 1 8.06086 -28.1196 253.299 0 0 0 0 0 0 0
330 1 7.68336 -29.056 254.427 0 0 0 0 0 0 0
331 1 8.77714 -30.1228 254.678 0 0 0 0 0 0 0
332 1 8.58227 -30.6456 256.118 0 0 0 0 0 0 0
333 5 7.30405 -31.5115 256.144 0 0 0 0 0 0 0
334 6 4.58934 -38.7542 255.354 -0.341962 -0.658698 0.665369 -0.0803886 2.345 2.345 8.755
335 5 1.87463 -45.9969 254.563 0 0 0 0 0 0 0
336 1 1.22294 -47.209 255.314 0 0 0 0 0 0 0
337 1 0.714675 -46.8717 256.803 0 0 0 0 0 0 0
338 1 -0.48993 -45.8597 256.694 0 0 0 0 0 0 0
339 1 -0.391834 -44.5676 255.919 0 0 0 0 0 0 0
340 1 -1.69895 -43.8533 255.663 0 0 0 0 0 0 0
341 1 -2.14517 -43.1215 256.91 0 0 0 0 0 0 0
342 1 -3.49631 -42.2969 256.818 0 0 0 0 0 0 0
343 1 -3.86922 -41.5947 258.12 0 0 0 0 0 0 0
344 1 -5.12127 -42.194 258.748 0 0 0 0 0 0 0
345 1 -5.27669 -42.005 260.295 0 0 0 0 0 0 0
346 1 -6.66052 -42.5186 260.601 0 0 0 0 0 0 0
347 1 -6.88194 -42.2133 262.033 0 0 0 0 0 0 0
348 1 -8.3683 -42.6455 262.415 0 0 0 0 0 0 0
349 1 -8.71785 -42.544 263.957 0 0 0 0 0 0 0
350 1 -7.66516 -43.3053 264.828 0 0 0 0 0 0 0
351 1 -8.16375 -43.6046 266.231 0 0 0 0 0 0 0
352 1 -7.1652 -44.2882 267.116 0 0 0 0 0 0 0
353 1 -7.81496 -44.4536 268.537 0 0 0 0 0 0 0
354 1 -8.51725 -43.2805 269.065 0 0 0 0 0 0 0
355 1 -8.97825 -43.2641 270.56 0 0 0 0 0 0 0
356 5 -9.62244 -44.5712 270.965 0 0 0 0 0 0 0
357 6 -9.29699 -50.5898 275.876 -0.403286 0.146716 -0.354178 -0.830899 2.345 2.345 8.755
358 5 -8.97154 -56.6085 280.787 0 0 0 0 0 0 0
359 1 -8.62525 -57.0303 282.152 0 0 0 0 0 0 0
360 1 -7.29222 -57.7225 282.228 0 0 0 0 0 0 0
361 1 -7.27411 -58.9981 281.364 0 0 0 0 0 0 0
362 1 -5.91025 -59.5448 281.337 0 0 0 0 0 0 0
363 1 -4.93647 -59.3579 282.538 0 0 0 0 0 0 0
364 1 -3.67213 -60.195 282.247 0 0 0 0 0 0 0
365 1 -2.68265 -60.2466 283.364 0 0 0 0 0 0 0
366 1 -1.27869 -60.9046 283.185 0 0 0 0 0 0 0
367 1 -0.224881 -60.461 284.228 0 0 0 0 0 0 0
368 1 1.03758 -61.1933 283.948 0 0 0 0 0 0 0
369 1 -17.2459 -25.5278 73.3547 0 0 0 0 0 0 0
370 1 -16.1206 -24.5464 72.9489 0 0 0 0 0 0 0
371 1 -15.8338 -23.6723 74.1414 0 0 0 0 0 0 0
372 1 -14.4363 -23.7301 74.6799 0 0 0 0 0 0 0
373 1 -13.5734 -22.8782 73.7507 0 0 0 0 0 0 0
374 1 -12.349 -22.4829 74.3995 0 0 0 0 0 0 0
375 1 -12.4841 -21.626 75.7102 0 0 0 0 0 0 0
376 1 -12.8187 -20.1817 75.5483 0 0 0 0 0 0 0
377 1 -12.3377 -19.2637 74.3575 0 0 0 0 0 0 0
378 1 -11.8856 -17.9733 74.9783 0 0 0 0 0 0 0
379 5 -10.8057 -17.7953 75.9108 0 0 0 0 0 0 0
380 6 -8.53217 -18.9426 83.2569 0.0326397 0.162837 -0.262587 0.950509 2.345 2.345 8.755
381 5 -6.25864 -20.0899 90.603 0 0 0 0 0 0 0
382 1 -5.01162 -20.1405 91.5893 0 0 0 0 0 0 0
383 1 -5.08362 -19.3752 93.0635 0 0 0 0 0 0 0
384 1 -5.71337 -18.0375 92.8948 0 0 0 0 0 0 0
385 1 -6.76108 -17.7007 93.9494 0 0 0 0 0 0 0
386 1 -6.48282 -17.1621 95.296 0 0 0 0 0 0 0
387 1 -5.66594 -15.8781 95.2817 0 0 0 0 0 0 0
388 1 -5.96712 -15.1285 96.6179 0 0 0 0 0 0 0
389 1 -4.93489 -15.2495 97.8276 0 0 0 0 0 0 0
390 1 -5.05938 -14.2945 98.9731 0 0 0 0 0 0 0
391 1 -4.40113 -14.8074 100.351 0 0 0 0 0 0 0
392 1 -2.81312 -14.8736 100.132 0 0 0 0 0 0 0
393 1 -2.19497 -15.6055 101.312 0 0 0 0 0 0 0
394 1 -2.50432 -15.0409 102.703 0 0 0 0 0 0 0
395 1 -1.70239 -15.7627 103.764 0 0 0 0 0 0 0
396 1 -0.187001 -15.7442 103.588 0 0 0 0 0 0 0
397 1 0.477305 -16.9594 104.44 0 0 0 0 0 0 0
398 1 1.95233 -16.7655 104.599 0 0 0 0 0 0 0
399 1 2.55382 -18.0538 105.189 0 0 0 0 0 0 0
400 1 2.36351 -19.4189 104.43 0 0 0 0 0 0 0
401 1 2.6979 -20.671 105.326 0 0 0 0 0 0 0
402 5 1.66397 -20.7248 106.496 0 0 0 0 0 0 0
403 6 0.700599 -20.0821 114.185 -0.00114839 0.0746747 0.566117 -0.820935 2.345 2.345 8.755
404 5 -0.262775 -19.4394 121.873 0 0 0 0 0 0 0
405 1 -0.0227916 -20.0931 123.186 0 0 0 0 0 0 0
406 1 -1.24287 -20.2484 124.153 0 0 0 0 0 0 0
407 1 -1.02523 -19.8404 125.603 0 0 0 0 0 0 0
408 1 -1.9449 -18.7751 126.172 0 0 0 0 0 0 0
409 1 -1.97841 -18.5961 127.689 0 0 0 0 0 0 0
410 1 -1.88413 -20.0412 128.393 0 0 0 0 0 0 0
411 1 -2.72857 -20.2654 129.605 0 0 0 0 0 0 0
412 1 -2.87652 -21.7357 130.005 0 0 0 0 0 0 0
413 1 -4.24959 -22.1382 130.363 0 0 0 0 0 0 0
414 1 -4.52664 -21.7924 131.8 0 0 0 0 0 0 0
415 1 -5.77452 -21.0211 132.132 0 0 0 0 0 0 0
416 1 -5.77321 -20.2723 133.552 0 0 0 0 0 0 0
417 1 -6.87895 -19.2879 133.918 0 0 0 0 0 0 0
418 1 -7.08866 -18.1114 133.018 0 0 0 0 0 0 0
419 1 -8.44037 -17.5101 133.216 0 0 0 0 0 0 0
420 1 -9.56435 -18.5713 133.353 0 0 0 0 0 0 0
421 1 -10.9393 -18.0335 133.398 0 0 0 0 0 0 0
422 1 -11.9881 -19.1325 133.586 0 0 0 0 0 0 0
423 1 -13.254 -18.5512 134.084 0 0 0 0 0 0 0
424 1 -12.9647 -17.7402 135.239 0 0 0 0 0 0 0
425 5 -12.7467 -18.4265 136.537 0 0 0 0 0 0 0
426 6 -7.55948 -19.7509 142.175 0.118341 -0.351299 0.505024 -0.779445 2.345 2.345 8.755
427 5 -2.37225 -21.0754 147.813 0 0 0 0 0 0 0
428 1 -1.26414 -20.5106 148.5 0 0 0 0 0 0 0
429 1 -1.86258 -19.8256 149.725 0 0 0 0 0 0 0
430 1 -1.84031 -20.3659 151.094 0 0 0 0 0 0 0
431 1 -0.606677 -21.0591 151.482 0 0 0 0 0 0 0
432 1 0.575464 -20.1208 151.563 0 0 0 0 0 0 0
433 1 2.01096 -20.7494 151.821 0 0 0 0 0 0 0
434 1 2.79202 -20.1951 152.969 0 0 0 0 0 0 0
435 1 4.22725 -20.4985 152.994 0 0 0 0 0 0 0
436 1 5.44138 -19.8419 152.126 0 0 0 0 0 0 0
437 1 6.7895 -20.3751 152.371 0 0 0 0 0 0 0
438 1 7.46621 -18.9328 152.575 0 0 0 0 0 0 0
439 1 7.47878 -17.9889 151.355 0 0 0 0 0 0 0
440 1 8.20468 -16.6773 151.72 0 0 0 0 0 0 0
441 1 7.49387 -15.5584 152.552 0 0 0 0 0 0 0
442 1 7.95195 -15.5223 153.948 0 0 0 0 0 0 0
443 1 6.96471 -14.8758 154.954 0 0 0 0 0 0 0
444 1 6.49538 -15.815 156.088 0 0 0 0 0 0 0
445 1 5.28319 -15.3179 156.762 0 0 0 0 0 0 0
446 1 3.93444 -15.6496 156.118 0 0 0 0 0 0 0
447 1 3.86852 -17.1217 155.715 0 0 0 0 0 0 0
448 5 3.85769 -18.2383 156.81 0 0 0 0 0 0 0
449 6 4.11534 -19.6543 164.45 0.016159 0.0915419 -0.933687 0.345816 2.345 2.345 8.755
450 5 4.37299 -21.0702 172.091 0 0 0 0 0 0 0
451 1 5.21695 -21.5219 173.194 0 0 0 0 0 0 0
452 1 6.29041 -20.4937 173.337 0 0 0 0 0 0 0
453 1 5.53901 -19.3309 174.117 0 0 0 0 0 0 0
454 1 6.54887 -18.3747 174.849 0 0 0 0 0 0 0
455 1 7.1872 -19.0225 176.1 0 0 0 0 0 0 0
456 1 6.49852 -18.5634 177.473 0 0 0 0 0 0 0
457 1 6.24502 -19.6955 178.26 0 0 0 0 0 0 0
458 1 5.39568 -19.2974 179.51 0 0 0 0 0 0 0
459 1 6.26826 -19.1657 180.737 0 0 0 0 0 0 0
460 1 5.50647 -18.4196 181.869 0 0 0 0 0 0 0
461 1 5.52537 -16.8694 181.755 0 0 0 0 0 0 0
462 1 5.67743 -16.1745 183.21 0 0 0 0 0 0 0
463 1 5.32325 -14.671 183.339 0 0 0 0 0 0 0
464 1 5.43877 -14.1368 184.763 0 0 0 0 0 0 0
465 1 4.68888 -12.8856 185.051 0 0 0 0 0 0 0
466 1 3.17257 -13.0356 185.214 0 0 0 0 0 0 0
467 1 2.91071 -12.7703 186.693 0 0 0 0 0 0 0
468 1 1.40582 -12.9634 186.975 0 0 0 0 0 0 0
469 1 0.98146 -12.6782 188.471 0 0 0 0 0 0 0
470 1 1.13244 -11.3546 189.197 0 0 0 0 0 0 0
471 5 0.584976 -11.4256 190.641 0 0 0 0 0 0 0
472 6 1.61116 -14.4485 197.73 -0.209899 -0.00583576 -0.288426 -0.934194 2.345 2.345 8.755
473 5 2.63733 -17.4715 204.82 0 0 0 0 0 0 0
474 1 3.03261 -17.1523 206.282 0 0 0 0 0 0 0
475 1 2.59786 -18.3916 207.091 0 0 0 0 0 0 0
476 1 2.85838 -18.3787 208.693 0 0 0 0 0 0 0
477 1 2.32472 -19.8469 209.164 0 0 0 0 0 0 0
478 1 1.21678 -19.5904 210.16 0 0 0 0 0 0 0
479 1 -0.0861937 -19.4614 209.386 0 0 0 0 0 0 0
480 1 -1.24525 -19.0687 210.39 0 0 0 0 0 0 0
481 1 -0.702431 -17.9016 211.331 0 0 0 0 0 0 0
482 1 -1.96718 -17.563 212.153 0 0 0 0 0 0 0
483 1 -1.77654 -16.5824 213.265 0 0 0 0 0 0 0
484 1 -2.99922 -16.5946 214.171 0 0 0 0 0 0 0
485 1 -2.92736 -15.1786 214.842 0 0 0 0 0 0 0
486 1 -3.26724 -15.524 216.319 0 0 0 0 0 0 0
487 1 -2.1277 -16.26 217.024 0 0 0 0 0 0 0
488 1 -1.93135 -16.0801 218.513 0 0 0 0 0 0 0
489 1 -0.71473 -16.8497 218.833 0 0 0 0 0 0 0
490 1 -0.591025 -17.2831 220.359 0 0 0 0 0 0 0
491 1 0.871959 -17.75 220.597 0 0 0 0 0 0 0
492 1 1.19516 -19.0457 219.669 0 0 0 0 0 0 0
493 1 2.1516 -19.9459 220.189 0 0 0 0 0 0 0
494 5 1.57931 -20.4455 221.406 0 0 0 0 0 0 0
495 6 2.04755 -20.2468 229.165 -0.00520644 -0.03231 -0.531726 -0.846284 2.345 2.345 8.755
496 5 2.51579 -20.0482 236.923 0 0 0 0 0 0 0
497 1 2.43528 -19.1742 238.127 0 0 0 0 0 0 0
498 1 3.55797 -19.6732 239.007 0 0 0 0 0 0 0
499 1 3.38751 -18.6659 240.189 0 0 0 0 0 0 0
500 1 1.93686 -18.3038 240.466 0 0 0 0 0 0 0
501 1 1.93263 -17.4103 241.756 0 0 0 0 0 0 0
502 1 2.77195 -17.9533 242.895 0 0 0 0 0 0 0
503 1 2.35854 -17.3562 244.268 0 0 0 0 0 0 0
504 1 2.83267 -17.9743 245.543 0 0 0 0 0 0 0
505 1 1.95075 -19.2501 245.996 0 0 0 0 0 0 0
506 1 2.36063 -19.6115 247.452 0 0 0 0 0 0 0
507 1 1.36023 -20.5023 248.145 0 0 0 0 0 0 0
508 1 1.56103 -20.5959 249.651 0 0 0 0 0 0 0
509 1 0.973542 -19.3366 250.265 0 0 0 0 0 0 0
510 1 1.87178 -18.7054 251.399 0 0 0 0 0 0 0
511 1 1.17899 -18.7629 252.688 0 0 0 0 0 0 0
512 1 0.237549 -17.6667 253.042 0 0 0 0 0 0 0
513 1 -0.30598 -17.6981 254.417 0 0 0 0 0 0 0
514 1 -0.577663 -16.3784 255.11 0 0 0 0 0 0 0
515 1 -1.6586 -16.4083 256.128 0 0 0 0 0 0 0
516 1 -0.973434 -16.5277 257.497 0 0 0 0 0 0 0
517 5 -1.29868 -15.3257 258.321 0 0 0 0 0 0 0
518 6 -5.54476 -12.6634 264.265 -0.116323 -0.322806 -0.199636 0.917829 2.345 2.345 8.755
519 5 -9.79083 -10.0012 270.21 0 0 0 0 0 0 0
520 1 -9.86614 -8.93876 271.279 0 0 0 0 0 0 0
521 1 -11.3047 -8.39729 271.34 0 0 0 0 0 0 0
522 1 -11.1908 -7.08807 272.215 0 0 0 0 0 0 0
523 1 -12.0985 -5.99858 272.179 0 0 0 0 0 0 0
524 1 -11.5276 -4.76189 272.828 0 0 0 0 0 0 0
525 1 -10.8321 -5.14284 274.133 0 0 0 0 0 0 0
526 1 -10.6447 -3.94303 275.066 0 0 0 0 0 0 0
527 1 -11.3461 -4.32457 276.399 0 0 0 0 0 0 0
528 1 -10.2769 -4.74945 277.511 0 0 0 0 0 0 0
529 1 -8.93316 -5.06046 276.862 0 0 0 0 0 0 0
530 1 -7.96877 -5.81948 277.692 0 0 0 0 0 0 0
531 1 -8.49593 -7.08994 278.472 0 0 0 0 0 0 0
532 1 -7.63977 -7.15841 279.757 0 0 0 0 0 0 0
533 1 -8.27458 -8.1811 280.708 0 0 0 0 0 0 0
534 1 -9.74694 -7.96891 281.283 0 0 0 0 0 0 0
535 1 -10.1374 -8.87535 282.506 0 0 0 0 0 0 0
536 1 -9.72728 -8.16623 283.843 0 0 0 0 0 0 0
537 1 -10.2723 -8.41044 285.222 0 0 0 0 0 0 0
538 1 -11.7009 -7.87591 285.561 0 0 0 0 0 0 0
539 1 -12.1747 -8.37421 287.084 0 0 0 0 0 0 0
540 5 -11.6706 -7.62598 288.305 0 0 0 0 0 0 0
541 6 -12.9183 -1.53637 292.975 -0.240135 0.376831 0.835592 0.319561 2.345 2.345 8.755
542 5 -14.1659 4.55324 297.645 0 0 0 0 0 0 0
543 1 -14.8503 4.9902 298.873 0 0 0 0 0 0 0
544 1 -16.4025 4.62404 298.836 0 0 0 0 0 0 0
545 1 -17.3024 5.51754 297.991 0 0 0 0 0 0 0
546 1 -18.7487 5.27449 298.552 0 0 0 0 0 0 0
547 1 -19.3777 4.0116 298.327 0 0 0 0 0 0 0
548 1 -20.8969 3.82074 298.532 0 0 0 0 0 0 0
549 1 -21.6153 4.81718 297.662 0 0 0 0 0 0 0
550 1 -22.8427 4.55611 296.82 0 0 0 0 0 0 0
551 1 -23.0492 5.81219 295.946 0 0 0 0 0 0 0
552 1 -22.795 7.13275 296.786 0 0 0 0 0 0 0
553 1 -4.02326 -15.5863 63.3226 0 0 0 0 0 0 0
554 1 -4.11183 -16.6171 64.5303 0 0 0 0 0 0 0
555 1 -4.35627 -15.8784 65.8551 0 0 0 0 0 0 0
556 1 -5.48893 -16.3624 66.8741 0 0 0 0 0 0 0
557 1 -5.41178 -15.7624 68.277 0 0 0 0 0 0 0
558 1 -6.38926 -16.529 69.2381 0 0 0 0 0 0 0
559 1 -6.49853 -16.0071 70.7203 0 0 0 0 0 0 0
560 1 -7.9671 -16.0544 71.0874 0 0 0 0 0 0 0
561 1 -8.06571 -15.9006 72.5819 0 0 0 0 0 0 0
562 1 -7.7447 -14.6543 73.2058 0 0 0 0 0 0 0
563 5 -6.33668 -14.8271 73.9023 0 0 0 0 0 0 0
564 6 -2.43099 -18.4099 79.5909 0.339333 0.137949 0.398324 0.840929 2.345 2.345 8.755
565 5 1.47471 -21.9927 85.2794 0 0 0 0 0 0 0
566 1 2.77658 -21.9946 86.1128 0 0 0 0 0 0 0
567 1 2.7599 -20.5906 86.827 0 0 0 0 0 0 0
568 1 3.31885 -20.2309 88.1628 0 0 0 0 0 0 0
569 1 2.49265 -18.9458 88.7283 0 0 0 0 0 0 0
570 1 3.21591 -17.797 89.1912 0 0 0 0 0 0 0
571 1 3.77905 -17.9713 90.5733 0 0 0 0 0 0 0
572 1 4.73648 -16.9105 91.1091 0 0 0 0 0 0 0
573 1 5.27097 -17.3046 92.549 0 0 0 0 0 0 0
574 1 4.24388 -17.5867 93.7089 0 0 0 0 0 0 0
575 1 4.93984 -17.7988 95.1353 0 0 0 0 0 0 0
576 1 4.39527 -16.741 96.0252 0 0 0 0 0 0 0
577 1 4.93731 -16.5654 97.4596 0 0 0 0 0 0 0
578 1 4.00166 -15.784 98.36 0 0 0 0 0 0 0
579 1 4.38019 -16.1181 99.805 0 0 0 0 0 0 0
580 1 4.6918 -17.6009 99.95 0 0 0 0 0 0 0
581 1 6.01667 -17.8427 100.687 0 0 0 0 0 0 0
582 1 6.28544 -19.3579 100.792 0 0 0 0 0 0 0
583 1 6.82796 -20.1182 99.4991 0 0 0 0 0 0 0
584 1 7.91991 -19.4918 98.8904 0 0 0 0 0 0 0
585 1 9.09913 -18.9328 99.7017 0 0 0 0 0 0 0
586 5 8.83124 -18.228 101.016 0 0 0 0 0 0 0
587 6 7.25846 -19.3169 108.552 -0.0274094 -0.120905 0.73122 0.670781 2.345 2.345 8.755
588 5 5.68569 -20.4057 116.088 0 0 0 0 0 0 0
589 1 5.27205 -19.742 117.347 0 0 0 0 0 0 0
590 1 6.45601 -20.0231 118.392 0 0 0 0 0 0 0
591 1 6.06986 -19.2546 119.632 0 0 0 0 0 0 0
592 1 7.16088 -18.9416 120.568 0 0 0 0 0 0 0
593 1 7.06448 -19.8811 121.821 0 0 0 0 0 0 0
594 1 8.40828 -20.0004 122.6 0 0 0 0 0 0 0
595 1 8.1467 -20.4198 124.076 0 0 0 0 0 0 0
596 1 7.30904 -21.6902 124.423 0 0 0 0 0 0 0
597 1 6.43991 -21.834 125.732 0 0 0 0 0 0 0
598 1 7.12673 -21.5795 127.052 0 0 0 0 0 0 0
599 1 6.2061 -21.553 128.246 0 0 0 0 0 0 0
600 1 6.74504 -22.0715 129.598 0 0 0 0 0 0 0
601 1 5.85952 -23.1707 130.166 0 0 0 0 0 0 0
602 1 5.51286 -24.2943 129.068 0 0 0 0 0 0 0
603 1 4.59615 -25.5213 129.515 0 0 0 0 0 0 0
604 1 5.27652 -26.8417 129.091 0 0 0 0 0 0 0
605 1 4.52394 -28.1028 128.841 0 0 0 0 0 0 0
606 1 3.78668 -28.4157 130.084 0 0 0 0 0 0 0
607 1 3.35811 -29.9383 130.27 0 0 0 0 0 0 0
608 1 2.95482 -30.5294 131.68 0 0 0 0 0 0 0
609 5 2.5426 -29.4945 132.743 0 0 0 0 0 0 0
610 6 4.99711 -25.2597 138.784 -0.276302 0.187547 0.0669142 0.940216 2.345 2.345 8.755
611 5 7.45163 -21.0249 144.825 0 0 0 0 0 0 0
612 1 8.5898 -20.1083 145.34 0 0 0 0 0 0 0
613 1 9.2848 -19.3995 144.229 0 0 0 0 0 0 0
614 1 8.77803 -18.0191 143.845 0 0 0 0 0 0 0
615 1 8.71681 -17.0212 144.927 0 0 0 0 0 0 0
616 1 9.84587 -16.2424 145.286 0 0 0 0 0 0 0
617 1 9.74037 -15.7791 146.787 0 0 0 0 0 0 0
618 1 10.8806 -14.8872 147.134 0 0 0 0 0 0 0
619 1 10.4688 -13.6941 148.085 0 0 0 0 0 0 0
620 1 10.5526 -13.9565 149.509 0 0 0 0 0 0 0
621 1 11.8144 -14.6328 150.007 0 0 0 0 0 0 0
622 1 12.0229 -14.7109 151.596 0 0 0 0 0 0 0
623 1 13.5015 -14.9881 152.148 0 0 0 0 0 0 0
624 1 13.8901 -16.4465 152.314 0 0 0 0 0 0 0
625 1 13.1317 -17.3602 153.333 0 0 0 0 0 0 0
626 1 13.4632 -18.8831 153.302 0 0 0 0 0 0 0
627 1 12.7121 -19.7303 154.274 0 0 0 0 0 0 0
628 1 11.1135 -19.5265 154.107 0 0 0 0 0 0 0
629 1 10.1514 -20.0804 155.225 0 0 0 0 0 0 0
630 1 9.19487 -19.0921 156.046 0 0 0 0 0 0 0
631 1 8.5243 -19.4339 157.35 0 0 0 0 0 0 0